VASP_XDATCAR_FROM_JSE
2.2741574
         4.762203156         0.000000000         0.000000000
         0.000000000         4.762203156         0.000000000
         0.000000000         0.000000000         4.762203156
    Cu     Zr
   108      0
Direct configuration= 1
     0.000000000         0.000000000         0.000000000
    0.1666666667        0.1666666667         0.000000000
    0.1666666667         0.000000000        0.1666666667
     0.000000000        0.1666666667        0.1666666667
    0.3333333333         0.000000000         0.000000000
    0.5000000000        0.1666666667         0.000000000
    0.5000000000         0.000000000        0.1666666667
    0.3333333333        0.1666666667        0.1666666667
     0.000000000        0.3333333333         0.000000000
    0.1666666667        0.5000000000         0.000000000
    0.1666666667        0.3333333333        0.1666666667
     0.000000000        0.5000000000        0.1666666667
    0.3333333333        0.3333333333         0.000000000
    0.5000000000        0.5000000000         0.000000000
    0.5000000000        0.3333333333        0.1666666667
    0.3333333333        0.5000000000        0.1666666667
     0.000000000         0.000000000        0.3333333333
    0.1666666667        0.1666666667        0.3333333333
    0.1666666667         0.000000000        0.5000000000
     0.000000000        0.1666666667        0.5000000000
    0.3333333333         0.000000000        0.3333333333
    0.5000000000        0.1666666667        0.3333333333
    0.5000000000         0.000000000        0.5000000000
    0.3333333333        0.1666666667        0.5000000000
     0.000000000        0.3333333333        0.3333333333
    0.1666666667        0.5000000000        0.3333333333
    0.1666666667        0.3333333333        0.5000000000
     0.000000000        0.5000000000        0.5000000000
    0.3333333333        0.3333333333        0.3333333333
    0.5000000000        0.5000000000        0.3333333333
    0.5000000000        0.3333333333        0.5000000000
    0.3333333333        0.5000000000        0.5000000000
    0.6666666667         0.000000000         0.000000000
    0.8333333333        0.1666666667         0.000000000
    0.8333333333         0.000000000        0.1666666667
    0.6666666667        0.1666666667        0.1666666667
    0.6666666667        0.3333333333         0.000000000
    0.8333333333        0.5000000000         0.000000000
    0.8333333333        0.3333333333        0.1666666667
    0.6666666667        0.5000000000        0.1666666667
    0.6666666667         0.000000000        0.3333333333
    0.8333333333        0.1666666667        0.3333333333
    0.8333333333         0.000000000        0.5000000000
    0.6666666667        0.1666666667        0.5000000000
    0.6666666667        0.3333333333        0.3333333333
    0.8333333333        0.5000000000        0.3333333333
    0.8333333333        0.3333333333        0.5000000000
    0.6666666667        0.5000000000        0.5000000000
     0.000000000        0.6666666667         0.000000000
    0.1666666667        0.8333333333         0.000000000
    0.1666666667        0.6666666667        0.1666666667
     0.000000000        0.8333333333        0.1666666667
    0.3333333333        0.6666666667         0.000000000
    0.5000000000        0.8333333333         0.000000000
    0.5000000000        0.6666666667        0.1666666667
    0.3333333333        0.8333333333        0.1666666667
     0.000000000        0.6666666667        0.3333333333
    0.1666666667        0.8333333333        0.3333333333
    0.1666666667        0.6666666667        0.5000000000
     0.000000000        0.8333333333        0.5000000000
    0.3333333333        0.6666666667        0.3333333333
    0.5000000000        0.8333333333        0.3333333333
    0.5000000000        0.6666666667        0.5000000000
    0.3333333333        0.8333333333        0.5000000000
    0.6666666667        0.6666666667         0.000000000
    0.8333333333        0.8333333333         0.000000000
    0.8333333333        0.6666666667        0.1666666667
    0.6666666667        0.8333333333        0.1666666667
    0.6666666667        0.6666666667        0.3333333333
    0.8333333333        0.8333333333        0.3333333333
    0.8333333333        0.6666666667        0.5000000000
    0.6666666667        0.8333333333        0.5000000000
     0.000000000         0.000000000        0.6666666667
    0.1666666667        0.1666666667        0.6666666667
    0.1666666667         0.000000000        0.8333333333
     0.000000000        0.1666666667        0.8333333333
    0.3333333333         0.000000000        0.6666666667
    0.5000000000        0.1666666667        0.6666666667
    0.5000000000         0.000000000        0.8333333333
    0.3333333333        0.1666666667        0.8333333333
     0.000000000        0.3333333333        0.6666666667
    0.1666666667        0.5000000000        0.6666666667
    0.1666666667        0.3333333333        0.8333333333
     0.000000000        0.5000000000        0.8333333333
    0.3333333333        0.3333333333        0.6666666667
    0.5000000000        0.5000000000        0.6666666667
    0.5000000000        0.3333333333        0.8333333333
    0.3333333333        0.5000000000        0.8333333333
    0.6666666667         0.000000000        0.6666666667
    0.8333333333        0.1666666667        0.6666666667
    0.8333333333         0.000000000        0.8333333333
    0.6666666667        0.1666666667        0.8333333333
    0.6666666667        0.3333333333        0.6666666667
    0.8333333333        0.5000000000        0.6666666667
    0.8333333333        0.3333333333        0.8333333333
    0.6666666667        0.5000000000        0.8333333333
     0.000000000        0.6666666667        0.6666666667
    0.1666666667        0.8333333333        0.6666666667
    0.1666666667        0.6666666667        0.8333333333
     0.000000000        0.8333333333        0.8333333333
    0.3333333333        0.6666666667        0.6666666667
    0.5000000000        0.8333333333        0.6666666667
    0.5000000000        0.6666666667        0.8333333333
    0.3333333333        0.8333333333        0.8333333333
    0.6666666667        0.6666666667        0.6666666667
    0.8333333333        0.8333333333        0.6666666667
    0.8333333333        0.6666666667        0.8333333333
    0.6666666667        0.8333333333        0.8333333333
Direct configuration= 2
    0.7855732508      0.007532156541        0.1100055009
   0.01063010241       0.07960067040       0.01577085045
   0.07322772825        0.9899704548        0.2206593082
    0.8676651060        0.4339631610        0.9964134138
    0.3619652752       0.05764388633       0.05036683462
    0.4965419293        0.2096050062       0.02131753984
    0.4392467367       0.09066509953        0.2491768230
    0.2016805156        0.2049377894        0.1166762335
    0.1547359630        0.5757781044        0.1578064084
    0.3220573419        0.5222613842        0.1350325558
   0.09089173803        0.3390517378       0.02376110630
    0.8523102596        0.6260026295        0.1565876590
    0.3074960797        0.3132310116        0.9491650469
    0.4907223135        0.4258291433       0.08759989228
    0.5974039229        0.2682560139        0.2084997506
    0.3451673108        0.3142856315        0.2017695647
    0.1269867142        0.9845052889        0.6497621327
   0.01793727364        0.2646844496        0.1884558619
    0.2709912160       0.07298624824        0.5134027518
   0.05890855713        0.3385933973        0.3903457245
    0.3079954525        0.9687645633        0.3133410134
    0.3940787994        0.1935482441        0.3923964713
    0.5624757509       0.03277166324        0.6436177497
    0.4392048311        0.2231125215        0.5968722478
    0.9572056503        0.4509182707        0.2179590274
    0.3367373362        0.6120271703        0.3355299362
    0.1572328279        0.3988376843        0.2277902146
   0.04803436118        0.4881957655        0.5372155098
    0.1633187179        0.1407788373        0.3276962406
    0.4589126036        0.4169041607        0.3110868507
    0.3043968242        0.3326306044        0.4333171191
    0.5385494990        0.5833018742        0.4192430074
    0.6006393710       0.07672237881        0.1025474702
    0.8006522196        0.1891342059        0.1437261855
    0.7063012817        0.9925371619        0.2970494063
    0.6033623505        0.1230641918        0.3994339636
    0.5378877425        0.3635742689        0.9038548059
    0.7022635193        0.2887460209        0.9412990492
    0.7599830044        0.4063789149        0.1563903543
    0.6680660732        0.6139024381       0.08655286776
    0.7265328718      0.001189508516        0.5094837216
    0.9031825729       0.09699700930        0.2743628567
    0.9392474295        0.8406238841        0.7340356888
    0.8365852488        0.1216158355        0.6252946024
    0.5921727290        0.3993885661        0.4137394280
    0.8610361914        0.5085216428        0.3861141496
    0.8253633252        0.2929828341        0.3292554716
    0.6015150197        0.5250175390        0.6234010011
    0.8956832479        0.7084044102        0.9384180514
    0.2047823902        0.9576596257       0.06850341538
    0.1625521978        0.7134505219        0.9869585022
   0.02249988396        0.7698569704        0.1209924923
    0.4964371659        0.6143930807        0.9643906846
    0.5578766304        0.8166487427      0.001029220264
    0.5157974722        0.6236655291        0.2259926466
    0.3603519163        0.7197660185       0.09435871356
    0.9640414727        0.6682153612        0.3967939219
    0.1978234705        0.7826416171        0.2701365200
    0.1674542595        0.6433925080        0.4981797331
   0.03176348855        0.7242830742        0.5614839891
    0.4278126668        0.7914915191        0.3791543569
    0.4868085214        0.9872378718        0.4161053387
    0.6472486801        0.8210802414        0.3792259452
    0.2515890040        0.8271259722        0.5006591374
    0.6657918308        0.6472434420        0.8601291135
    0.7278817025        0.8178770954        0.8835289283
    0.7700228459        0.8121203376       0.06917259262
    0.5292229230        0.8893965611        0.2160671719
    0.8652686393        0.8397447433        0.2517190856
   0.08319868769        0.8817435826        0.4159438281
    0.8177924117        0.5635748953        0.5704351627
    0.8369161271        0.7527359849        0.4740666530
    0.1646142940        0.8748195842        0.8288502058
    0.2341100767        0.1228302198        0.6905937314
    0.1318075841        0.1485522937        0.9260122995
    0.9133271779        0.1996105622        0.9525262112
    0.3653482653        0.9382609061        0.7058237345
    0.5509552510        0.1832054613        0.7881155134
    0.5572786051        0.9911839660        0.8913023848
    0.3489082430        0.1225325167        0.8201775288
    0.9860592816        0.1556840732        0.6858322274
    0.2134271302        0.5527659146        0.6945372066
    0.1996751664        0.3302716781        0.8094715657
    0.9432546359        0.3669319411        0.7125024116
    0.2273894940        0.2904204919        0.5970442345
    0.3705759671        0.4773213077        0.5425244034
    0.4088626842        0.3557877170        0.7632498816
    0.2943927768        0.5250157929        0.9032524153
    0.7556807142        0.9019865223        0.6883701248
    0.9116247700        0.9192987010        0.5259211245
    0.9314163533       0.03130227567        0.7978812234
    0.7401591191       0.05490816047        0.8881882880
    0.6124470976        0.3218364653        0.6722321709
    0.8067852532        0.3614004249        0.5300732538
    0.7581863093        0.2454193034        0.7579113051
    0.4199038908        0.5736933095        0.7501727698
   0.03349929855        0.6432921097        0.7496026814
    0.1969949653        0.7262124699        0.6574186030
    0.3067321786        0.7173398690        0.8415004060
    0.9664597650        0.8909959515        0.9166708817
    0.3843715822        0.6736220342        0.5433345748
    0.5434375923        0.8721839075        0.5621640794
    0.5351892079        0.8252611806        0.7568593042
    0.3438621315        0.9384355120        0.9025365309
    0.7298346700        0.6036932287        0.3358206550
    0.8174318504        0.6944839518        0.7319893074
    0.7580247988        0.4749484129        0.7907066653
    0.6462778712        0.7191784697        0.6202048393
Direct configuration= 3
   0.03389525050        0.9177991704        0.3728109421
    0.1300613092        0.8963238325        0.2029726876
   0.09566710484        0.1831822931        0.5030007288
   0.07707744128        0.5108136981        0.1981156206
    0.3890433548        0.3185315047        0.2171439672
    0.6439760868        0.1372704412        0.1194875641
    0.4130922528        0.8344661050        0.1126748377
    0.2593721476        0.1776668940        0.2766566614
   0.05944811637        0.5962456913        0.8551741212
    0.4397841475        0.1508545835       0.03353857336
    0.3759461498        0.3841256404        0.9604984672
    0.9019754686        0.9510849335        0.1865627273
    0.4886896963       0.02109605280        0.1849683155
    0.6354133748        0.6901270125         1.009288874
    0.5603538475        0.2355245289        0.9164104325
    0.1963638771        0.3669351743        0.1596537325
    0.2411682544        0.8995952772        0.4655654518
    0.9318974974        0.1155577873        0.4031575028
    0.3104618826        0.9697537902        0.2536264641
    0.7801893045        0.3416750860        0.2345699913
    0.4305323401        0.8568080857        0.4562837604
   0.05441288662        0.3470146955        0.3208976329
    0.3457156102        0.4556359756        0.6066559522
    0.5790921411        0.3185209573        0.1378496680
    0.9183353288        0.2977083462        0.1323096584
    0.2042322202        0.5288356491        0.3431200767
    0.9030416326        0.5569488027        0.2919099258
   0.07108784972        0.7745798579        0.5380171404
    0.5985054668        0.3322184840        0.3663533108
    0.5402909789        0.5081592748       0.01825637378
    0.8829814011        0.4673822376        0.6468353048
    0.6319591089        0.6762431491        0.7608902418
    0.4772220610        0.3640267352        0.7293052434
    0.8112733026        0.1206706282       0.06740619998
    0.4650222621        0.1208973968        0.3494581712
    0.7459577934        0.4115839778        0.4548510750
    0.6909356447        0.4470205267        0.8313282603
    0.7244437816        0.1602347172        0.3116440678
    0.5506036765        0.6635581706        0.1900925827
    0.8272042361        0.6860706673      -0.01462277027
    0.8003347940        0.2574525252        0.6040322924
    0.7620724270       0.07173994129        0.5142266532
   0.01953234268     0.0007262996856       0.02037696782
    0.9623178896        0.1976814203        0.9454069290
    0.6230694283        0.4944283482        0.2730072690
    0.9307900228        0.7298361280        0.3852295992
    0.7861459355        0.5318179198        0.1395820746
    0.5556391700        0.2570139301        0.5850997510
    0.9718017393        0.7730126936        0.1998629693
   0.08140766679        0.8091216378        0.9745792151
   0.09491147318        0.8128307985        0.7481938372
    0.2084327129        0.6971524444        0.1105093733
    0.2543814807        0.4809083693        0.8279038787
    0.7237274390        0.8551380843        0.8620765004
    0.5347131747        0.8455487610        0.2587059052
    0.1104547028        0.3972193298     -0.008206361545
   0.03162723930        0.5258929308        0.4698854815
    0.3556239918        0.7152992061        0.2929769689
    0.2910801989        0.6732222045        0.5100560447
    0.8802575410        0.8138688361        0.7134208940
    0.3566339031        0.5401652894        0.2065684641
    0.5018396382       0.03139213826        0.5453792094
    0.6645478663        0.8561726063        0.4478502538
    0.5097264393        0.6679933425        0.5937529946
    0.6072703369        0.4817688593        0.5742016742
    0.8957542743        0.8730088564        0.9561916218
    0.6591607935        0.9207348570       0.05204886793
    0.3707375037        0.6229367072       0.04494125443
    0.7304777600        0.9883347522        0.2472822172
    0.1919524368        0.6930292990        0.3401518692
    0.9898201745        0.6355794961        0.6645469873
    0.8536737568        0.8691476374        0.4732500948
    0.1415289446       0.01147978972        0.8430991328
    0.1414893919        0.1337555279        0.6833643863
    0.2525154740        0.9822436422       0.03392610158
    0.7228440962        0.3475060275       0.02227394868
    0.3050405309        0.9582307811        0.6801447996
    0.7248612820       0.05587176460        0.8656582136
    0.3290041709        0.1617227762        0.6302179129
    0.5219060224        0.9603050985        0.9301923381
    0.9199086457        0.1489815452        0.6522162250
    0.2021121974        0.3512116725        0.4815007802
    0.9290936531        0.3256764735        0.8066456409
    0.5110598035        0.1044399733        0.7556139167
    0.9452926657        0.3356525341        0.5135164633
    0.3693311867        0.2877850226        0.4136653268
    0.2801082903       0.08820439634        0.4778223825
    0.2693561188        0.2710085412        0.8153261320
    0.9077615835     -0.004441211743        0.7909291707
   0.02382555569        0.9899344376        0.6217984693
    0.2045890731        0.1810587546        0.9908221752
    0.4731709894        0.8364094591        0.6767599704
    0.3368883350       0.09620335105        0.8638159386
    0.8133344358        0.5789154725        0.5060629837
    0.7509326393        0.2260644111        0.7957985430
    0.4339057428        0.4628987235        0.3852533308
    0.1161282246        0.3333400216        0.6961407753
    0.1785625421        0.6424010118        0.6958885170
    0.3665211898        0.6479946373        0.7312477185
   0.05676231478        0.1222061504        0.1830873667
    0.5946565533        0.6485624378        0.4344858485
    0.7027733172        0.8433689699        0.6546438795
    0.4738020742        0.7423962958        0.8608582783
    0.2887914182        0.8352844057        0.8366239225
    0.7511734711        0.7208427315        0.2616248915
    0.9151271683        0.4588810520        0.9546974100
    0.4725328732        0.5595645521        0.8572238282
    0.8466615094        0.6411212636        0.8192576667
Direct configuration= 4
    0.1492442593        0.7503246321        0.2869796542
    0.2498595952        0.8728042471        0.4319586938
   0.02981001057      -0.02298130540        0.4578093020
   0.08563791983        0.3984766865       0.01705636252
    0.3051497360        0.2372865163        0.3223899081
    0.6801103204     -0.004918952882        0.3371351153
    0.3141216086        0.7804844061        0.2359363929
   0.06659196866        0.3413653265        0.2964427998
   0.05257717903        0.4864978887        0.7506343096
    0.3608302634        0.1546000119        0.1066438747
    0.4147755445        0.6021172275        0.1245121744
   0.07502475688        0.9772804619       0.09013762932
    0.4448695229        0.9441984913        0.3185518379
    0.6049771380        0.5995705035       0.08051604823
    0.6282082085        0.2975999231        0.7985527241
    0.3101826521        0.4620930269        0.9998351549
    0.3092650244        0.5337232574        0.7470418761
    0.9337150769        0.1198301676       0.04273277055
    0.1528902065        0.9328027128        0.2961532998
    0.7281304985        0.4376267557        0.9170381143
    0.3750333158       0.09060039090        0.4706867947
    0.8156463915        0.5592194473        0.1011685497
    0.3621961776        0.6237727154        0.9322237125
    0.5474499505        0.1358842664        0.9463478103
    0.6288582679        0.3016248524       0.05036943340
    0.2703991917        0.4183109552        0.2148897324
   0.03356434492        0.7529546971       0.08256395469
    0.1406969869        0.5818741493        0.5285745414
    0.4565135694        0.3249831276        0.4113032972
    0.5531995989        0.6671477322        0.8806777736
    0.7167268248        0.6155131885        0.3067726914
    0.5229819248        0.7866797092       0.07596317598
    0.6177826942        0.5166085355        0.7277181801
    0.9553310875        0.1289774948        0.2536897697
    0.1665984769        0.1376949582        0.3541436874
    0.8279106703        0.2891079189        0.1435446156
    0.8756895984        0.4070502770        0.6878575197
    0.5762534602        0.2007252801        0.3520777090
    0.5456743496        0.7002946212        0.2595438135
    0.9679813666        0.8120258854        0.2996378288
    0.6862214053        0.3885284089        0.2620633421
    0.6381020953       0.05610153621        0.5146039662
    0.2083558020        0.2318447909        0.9254687093
   0.09182673107       0.06076959443        0.7712546153
    0.4497182117        0.3120784394        0.1855809135
    0.8687240495        0.9490234935        0.4030920205
    0.7775736139        0.6806340525        0.9353643505
    0.7160136018        0.2645223387        0.5619784714
    0.9671918207        0.5717126943        0.9691569126
    0.8938886300        0.8802294870       0.01115848139
    0.9910010141        0.7260338156        0.8529261144
    0.1522419017        0.5911767539       0.09670524709
    0.2581515810        0.3862378487        0.8463000704
    0.7228589641        0.7843523035        0.7835232802
    0.4303260885        0.8077281241        0.4631027681
    0.1515707877        0.3126907761        0.7126045181
    0.9687533669        0.6186108401        0.2421229232
    0.6308031826        0.7319510233        0.4057826174
    0.4411612893        0.3817628781        0.6901015844
    0.9852548750        0.8976723092        0.6864837099
    0.2979201278        0.6733439125        0.4277574327
    0.4323718896       0.05142689847        0.6711831888
    0.6080072395        0.8654360297        0.5707038301
    0.6773749826        0.6537815984        0.5956947106
    0.5936769824        0.4758030518        0.4231552576
    0.7967587005        0.9890797859        0.1991049566
    0.7614686332        0.7780780459        0.1530077612
    0.1568098630        0.5910293721        0.8945816758
   0.01205233501        0.1773950777        0.6391416639
    0.2729415293        0.7071908656        0.6024128686
    0.7617002333        0.4745064421        0.5370647909
    0.9297585750        0.6108557455        0.6077256348
   0.04632748505        0.9342502137        0.8880082681
    0.2077689063        0.1059076671        0.5504274157
    0.3194413930        0.9444616730        0.1201135268
    0.7025913224        0.1166807569        0.1201521268
    0.4794226807        0.6790865425        0.7149599966
    0.4568478105        0.9628580913        0.9767190071
    0.5460585953        0.2261635698        0.5754437371
    0.5815706129        0.9570944067        0.1913209118
    0.8270877881        0.2004357799        0.7789719872
    0.3244523773        0.2681059995        0.5745585685
    0.8209266988        0.5557173729        0.7591675457
    0.4148273035        0.8812795829        0.6361457760
    0.8839456162        0.4443633362        0.2828669977
    0.2495192131        0.4465293238        0.4367459734
    0.2087014476        0.9285830289        0.6756739500
    0.3836604200        0.2556724071        0.8577493623
    0.8469203024       0.03546166744        0.5902064897
    0.8172500470       0.03783986724        0.8942535756
    0.2816493426        0.1782618236        0.7246477242
    0.6619753296       0.05549393683        0.7144073145
    0.2903229423        0.9589191348        0.8485958941
    0.8377668342        0.7655093533        0.5185315181
    0.7894931243        0.2323676456        0.9576909524
    0.4267748866        0.5296878009        0.3177377286
  0.002179151972        0.4447072274        0.4918106551
    0.1415005691        0.2780086589        0.4960724481
    0.5259839536        0.4346957860        0.9033087892
    0.1151025425        0.2474988530        0.1517216787
    0.9045632899        0.5842068187        0.4289154333
    0.9306270755        0.2729581974        0.4503980983
    0.5491018559        0.8843403891        0.8195002525
    0.2032579677        0.7847619901       0.03582152487
   0.03338393367        0.7826539026        0.4871821619
   0.01699332167        0.2482375170        0.8317373359
    0.3130592308        0.7912827615        0.8118907853
    0.6758985320        0.9125026121      0.007818965655
Direct configuration= 5
    0.1734226819        0.7730801036        0.2810352841
    0.1510796456        0.5983077924        0.2007398342
    0.2468842728       0.02758930447        0.3498588360
     1.011664412        0.5844955437        0.7904272570
    0.4577718181       0.07538758210        0.4833537326
    0.6814372608        0.8796844741        0.3133552845
    0.3570244190        0.7145634981        0.3427507172
    0.9262955898        0.4639256868      -0.04411170349
   0.06484364018        0.6763873969        0.6117926707
    0.2946307371        0.2200372802       0.03963881112
    0.4811317926        0.7778635435        0.1250597859
    0.8017537539       0.03769078255        0.2271985097
    0.4817821802        0.8675900500        0.3685206957
    0.7347481530        0.6665262312        0.3160482551
    0.6211619098        0.3152306995        0.6893803486
    0.2801863846        0.3671084749        0.8548095406
    0.4993417763        0.4346956808        0.8088235633
    0.9032403484        0.1161319746        0.1099301321
    0.8689509012        0.8457415520        0.2671498994
    0.5048452574        0.5498682778       0.04086383849
    0.4540636508        0.8253740574        0.5839653081
    0.8432618946        0.5514999062        0.1602939061
    0.3745953338        0.8112744888        0.8564934091
    0.4371979756        0.3562181821        0.9921789019
    0.6167711401        0.3886557224       0.05231188020
    0.2283373410        0.3880210068        0.1743821561
    0.1006354221        0.8313468276        0.9344014922
    0.2276625748        0.5303583894        0.7844884428
    0.5150111561        0.2245029271        0.2551521191
    0.6566224032        0.7732072208        0.9394252363
    0.5731977790        0.4822366679        0.5427671242
    0.7707893806        0.7231891883       0.06960357235
    0.6850444309        0.5351453123        0.7038560450
    0.8162625356        0.9949650338        0.4471096396
    0.3783261385       0.07372739579        0.1415745826
    0.8087652288        0.3236160858        0.1030202639
    0.8346388165        0.3989043344        0.7163205026
    0.3333806075        0.2224124575        0.3804035480
    0.5737097307        0.6312729566        0.2629158497
    0.9613747314        0.6581460690        0.3861299197
    0.6595443590        0.4422452277        0.3160264885
    0.6418602575       0.07878318033        0.3473034307
   0.05757845304        0.2566235450        0.1344098704
    0.1335957974       0.05081180940        0.1075085482
    0.3367823002        0.5850397101        0.9471480456
    0.6829705041        0.9587801462       0.04173372109
    0.8859410816        0.7934484687        0.8382320559
    0.5052588239        0.2645744687        0.4408042751
    0.7905743996        0.6021091212        0.8856546325
    0.2507308760        0.8417817621        0.6910459332
 -0.006380599684       0.04007431837        0.9002800835
    0.3333901848        0.6352109799        0.1843774042
   0.07765897611        0.3626759133        0.7860669607
    0.9798938017        0.8242030114        0.6533678529
    0.6520514057        0.7405267645        0.5643518103
    0.2267988739        0.5196892457        0.5760152547
    0.1200639032        0.4863932285        0.9650402361
    0.7599495865        0.5736200520        0.5001845812
    0.2025908706        0.3460505419        0.4802942117
    0.8035273008        0.9537476954        0.8757264256
 -0.008471765787        0.4603777221        0.1816391589
    0.3413332726        0.8947844383        0.1986284687
    0.8225374268        0.7906684315        0.4919872589
   0.02986955315        0.8460166826        0.4584622565
    0.5450125723        0.8225052121        0.7633730458
    0.8916779014        0.8780319497       0.04650009618
     1.001094524        0.6561748808       0.06502856967
    0.1858941047        0.7168594449        0.8007864436
   0.01481463733        0.2209749877        0.6195642373
    0.4727664317        0.6495090603        0.4648982212
    0.8138899700        0.1632924805        0.5922784290
    0.9497165108        0.4959557555        0.6164350629
    0.1937623152        0.7523251622       0.06382330643
    0.1878705170       0.04918270585        0.7780002383
    0.2464123717        0.5474129991        0.3747851390
    0.7613008604        0.1675413317        0.9396429028
    0.3857729466        0.3877319456        0.6029467020
    0.5213374169        0.1589321842         1.017079956
    0.3309070446        0.1611532537        0.8654064190
    0.6973486859        0.1539650334        0.1411644988
    0.8537421038        0.1876119291        0.7582308912
    0.3827386748        0.1787058845        0.6266523309
    0.8445165247        0.6671870670        0.6769637778
    0.5806489403        0.9737381916        0.5664327024
    0.8376252017        0.2144354137        0.3682185744
    0.4627476756        0.4380277205        0.3642100272
    0.2614992757        0.9459029929        0.5548833152