LAMMPS data file via write_data, version 3 Mar 2020, timestep = 1799500

4000 atoms
2 atom types

-4.4361946026678076e+00 4.0536194602666427e+01 xlo xhi
-4.4361946026678076e+00 4.0536194602666427e+01 ylo yhi
-4.4361946026678076e+00 4.0536194602666427e+01 zlo zhi

Masses

1 63.546
2 91.224

Atoms # atomic

2180 2 -1.7631919187345337e+00 -2.0202779278261005e+00 -2.4862096365765129e+00 0 -1 0
2806 2 -8.3779861994301807e-01 -2.6472216723268476e+00 6.5383616279074008e-01 -1 0 0
975 2 -3.6414780877945470e+00 -3.6615330914375317e+00 -1.5838262228309485e-01 1 0 0
3926 2 -3.1336750342723896e+00 -4.1092836574453973e-01 -1.7994686257902703e-01 2 0 0
1327 2 -4.2456048878363157e+00 1.5728723653252352e-01 -3.0684570797105657e+00 -1 2 2
292 2 3.7278184003018868e+00 -1.9745182408050024e+00 -3.4163026711534026e+00 0 0 0
3333 2 1.0505304484022417e+00 -9.7225168493288461e-01 -1.7189462601585452e+00 1 0 0
3181 2 3.3397674715891323e+00 -3.1442419924108429e+00 -8.4476243475534218e-01 1 1 1
3615 2 3.8939905970129658e+00 5.4404056277693513e-02 -9.1502339728448057e-01 2 2 0
2876 2 5.2744571817433172e-01 -4.1760616782762305e+00 -1.6285130336281100e+00 1 1 1
544 2 8.9334828942741051e-01 -3.0210750387638221e+00 -4.2546625388182067e+00 1 2 0
2087 2 6.6013271832896905e+00 -9.3472038852695460e-01 -2.6217039783708014e+00 1 1 -1
2165 2 6.1656578976774519e+00 -2.1207201812961989e+00 -6.6439057981863670e-02 1 1 -1
597 2 8.7939440666740687e+00 -3.2714495877005092e+00 -1.6049091003996812e+00 0 0 0
1924 2 6.0344478599324951e+00 -4.1620446561823243e+00 -2.7349956674919977e+00 0 1 1
739 2 9.0928617454508736e+00 -9.8185873818211888e-01 5.3323606420538283e-01 0 1 0
3773 2 9.6215218570999141e+00 -2.7338027946559063e-01 -2.2741556794725222e+00 0 0 0
2280 2 1.1768387316553696e+01 -2.1742826559361794e+00 -1.0509754269903540e+00 0 0 1
437 2 1.3240986872061502e+01 -5.1815464026615832e-01 -3.3891733741563539e+00 0 1 0
3013 2 1.1297386583657424e+01 -3.6644681836111155e+00 -3.6534361357111087e+00 0 1 -1
1008 2 1.6905474913511409e+01 -3.4537978270867153e+00 4.3743506102182650e-01 0 -1 1
2529 2 1.4292184997959431e+01 -3.2324942286826390e+00 -2.9606942765600883e+00 1 -1 1
1247 2 1.7440378096839435e+01 -2.1259036938164844e-01 3.9096002816799302e-01 0 0 0
3460 2 1.4570083183930901e+01 -1.1731525162316445e+00 -4.0019245178869411e-01 0 1 0
3834 2 1.7225403002139892e+01 -2.1342223814216292e+00 -2.1418067075792582e+00 1 0 2
1829 2 1.6251606143080462e+01 5.9757383322986524e-01 -2.8013869223396348e+00 0 0 0
2217 2 1.5805786422445248e+01 9.5564496050219905e+00 4.7315744583209440e+00 0 1 0
3396 2 -2.8477974480688495e-01 5.8147180333609061e-01 6.0170847920264237e-01 1 0 0
3485 2 -1.3941454395293187e+00 1.2050498868283217e+00 -2.2892368792540014e+00 1 0 -1
1670 2 -1.2740784459279793e+00 3.3661064717331497e+00 1.7790079800248204e-01 -1 1 1
2003 2 -2.2467133753418262e+00 4.0690904892584410e+00 -2.7238675547199884e+00 0 1 1
3402 2 -4.1188170286196950e+00 2.4159012703223421e+00 -6.8144831496845626e-01 0 1 0
3241 2 -3.5592966781985478e+00 5.4900624399969882e+00 -4.2012768563588043e-01 0 1 1
536 2 2.7347690856088827e+00 8.6659403412698133e-01 -3.8806003606104467e+00 -1 1 1
2182 2 1.4425481402433951e+00 2.2661447161412021e+00 -1.4798610412930437e+00 1 1 -1
3406 2 4.2675717860811595e+00 3.2474935601974186e+00 -7.0033451943018665e-01 0 0 -1
2212 2 3.1420863099514325e+00 4.0091735054197724e+00 -3.7603876491049197e+00 0 0 0
127 1 5.2268753880950403e-01 4.8174018034549864e+00 -1.9718641354594468e+00 1 0 0
1574 2 1.5518880986230714e+00 4.3963520816890487e+00 9.8499229966466118e-01 1 1 1
3143 2 6.7640746041120376e+00 1.0929023711766099e+00 -1.8195643041287646e-01 0 2 0
872 2 5.5674857106178219e+00 1.8847470495834084e+00 -3.1289313798504264e+00 0 1 0
734 2 5.9185288530639362e+00 5.0729610289208562e+00 -2.9008874840673986e+00 -1 0 1
684 2 7.1493148521981169e+00 4.2904593291115010e+00 1.6893831634138046e-02 0 0 1
3205 2 8.4695357058202010e+00 2.7097686831400107e+00 -2.3731096073086375e+00 0 0 1
345 2 1.1112918516638105e+01 1.8185011740960464e+00 -4.0974570061920392e+00 0 -1 0
3244 2 1.2138234611712900e+01 1.0653246630183224e+00 -1.0957851327702732e+00 0 0 -1
1124 2 1.1211118143346370e+01 3.9310287687131140e+00 -1.5704390097655847e+00 0 0 0
3221 2 9.5825637334539433e+00 2.0833403144695435e+00 5.4973204446308088e-01 -1 1 0
2086 2 1.0005602170032290e+01 5.2529319443735805e+00 9.0706585763259007e-01 2 0 1
1828 2 1.3845375315163167e+01 2.7791122014198182e+00 -3.1039776305177851e+00 0 0 1
1747 2 1.5074934107445010e+01 2.0360144144036383e+00 -3.7514414345788794e-01 0 -1 2
3124 2 1.6804721633495561e+01 3.6534052298448003e+00 -2.5692241460260918e+00 1 0 2
2219 2 1.4098096038931033e+01 4.9217406388854776e+00 -7.5759393367720840e-01 0 0 0
3895 2 1.7903046201656348e+01 3.1141396260914007e+00 3.6810059131058015e-01 2 0 0
2748 2 -1.5385153580067481e+00 9.3426483901153077e+00 -4.3756138955331236e-01 0 1 0
1237 2 -1.8013141381707936e+00 7.2260675044539369e+00 -2.8861511756657015e+00 1 0 0
2148 2 -6.4481756472514729e-01 6.4790575448764098e+00 -8.6857230250094730e-02 0 -1 1
3091 2 -2.7736703577379798e+00 1.0090300792668126e+01 -3.3759713332579864e+00 1 0 -1
3592 2 1.4730175662107932e+01 1.0078011468805718e+01 1.7876461457215944e+00 1 0 1
1375 2 3.1818220217299231e+00 5.9725328354341656e+00 -1.3078227845203125e+00 0 0 -1
1009 2 1.0584350520170656e+00 8.2561829950629146e+00 -2.0735496896868932e+00 0 0 0
2416 2 3.8705969039246000e+00 9.2064776464563671e+00 -1.3729447314430874e+00 1 1 0
3134 2 3.6416369521216225e+00 7.2228894759282696e+00 -3.9055413584766909e+00 1 0 0
3774 2 2.1147383623677714e+00 7.5975368078515491e+00 9.1271567476534976e-01 1 -1 0
3988 2 1.3756044966155603e+00 1.0434155954974239e+01 4.0796435390842678e-01 2 0 1
3376 2 2.6810426823378037e+00 1.0119178185264492e+01 -4.3487927510658171e+00 0 0 1
1346 2 7.9639773259339375e-01 6.1310192615003487e+00 -4.4059519478136071e+00 -1 0 1
3031 2 8.7728880657050627e+00 6.0292133398786341e+00 -2.1950044350511595e+00 0 0 0
2595 2 6.4817421571098333e+00 8.2310311276401062e+00 -3.0617126881529142e+00 0 1 1
622 2 6.0558015814494865e+00 7.1140572038294554e+00 -3.8259281330229644e-01 0 0 1
2821 2 6.7312652449896841e+00 1.0272538105193631e+01 -5.9494368690591237e-01 1 1 1
1849 2 9.0001947753447453e+00 7.9871208696766818e+00 2.8101317283775007e-01 -1 0 0
2697 2 1.2902361388184612e+01 5.5572227620834660e+00 -3.6687942100028619e+00 1 1 2
1408 2 9.3084057647723171e+00 9.2715661631102648e+00 -2.2909062387033736e+00 1 0 1
1818 2 1.1616282513496234e+01 7.0859090287651885e+00 -1.3680606758723752e+00 0 0 1
1765 2 1.2159169378519163e+01 1.0271472412844336e+01 -1.4974934154072925e+00 -1 -1 0
2835 2 1.1835240874810527e+01 9.0620671801672490e+00 1.1135964198317634e+00 1 1 0
2290 2 1.1476071647372429e+01 6.8355946658731579e+00 6.3170192909592906e+00 0 0 -1
324 2 1.3529950993893550e+01 8.7175005035551081e+00 -3.7759222326701662e+00 0 -1 0
3572 2 1.6970914260066269e+01 5.9267771255020421e+00 -9.2360586385023424e-02 -1 0 1
3568 2 1.6409844817231939e+01 9.6922488373116344e+00 -3.1272457598935546e+00 2 1 1
2789 2 1.5784154550497661e+01 6.5556021778024824e+00 -3.0083615162879020e+00 1 2 -1
2684 2 1.4480945658873154e+01 8.0802236602522228e+00 -6.5413230776847353e-01 -1 0 0
1292 2 1.7317234494819832e+01 9.1213608757150162e+00 4.8533380517741698e-02 0 0 1
2143 2 -3.4751206109712069e+00 -1.6316007015232228e+00 2.4051812936494779e+00 -1 0 -1
349 2 -2.3515195384386165e+00 -2.3218791963141916e+00 5.4252143006778262e+00 1 0 1
2420 2 -5.9147437669215996e-01 -6.6264620685022058e-01 3.1957922277956934e+00 0 1 1
1395 2 -2.6937723531504907e+00 -4.4166075338415745e+00 2.7407065652395524e+00 1 2 0
1524 2 2.6904445206268068e-01 -3.4128448187992397e+00 3.5286853576140658e+00 0 0 -1
2674 2 2.0070321723145810e+00 -1.6035771299185391e+00 1.4449878352787593e+00 2 2 0
959 2 4.9498687677116848e-01 -1.3710949127104404e+00 6.1651246066970327e+00 1 0 -1
2009 2 3.1453943733610110e+00 -2.2650705243906408e+00 4.3770358060484362e+00 1 0 2
1291 2 4.4540873409008785e+00 -3.8181725490532239e+00 2.0769141090284888e+00 1 1 1
3416 2 2.1269581440222352e+00 4.9201088100797108e-01 4.1613050574255475e+00 1 1 0
2940 2 4.8270193793893679e+00 -5.6495533157813238e-01 2.1790412825208207e+00 2 0 -1
330 2 6.1374258215646265e+00 -1.4042393557721717e+00 4.9749978088841562e+00 0 0 -1
2374 2 7.4914256260328038e+00 -2.9068683106760860e+00 2.5663581092746730e+00 2 0 0
1755 2 8.3047777183292091e+00 -3.4644022400012737e+00 5.8148969564580018e+00 1 0 0
857 2 8.8565546809520441e+00 -2.3346417862477864e-01 5.9788162490637564e+00 0 1 -1
3586 2 7.7556384885403489e+00 3.9014801448085024e-01 2.8871021578293625e+00 2 -1 -1
1893 2 1.4192835512206006e+01 5.6953807126657079e+00 4.8307514482149791e+00 -1 0 1
121 1 1.0339068365689180e+01 -3.3617184641313655e+00 1.1309412570713082e+00 0 0 1
1075 2 1.2904591721360770e+01 -2.9142623225180286e+00 1.8335681817558136e+00 0 1 1
3401 2 1.1965854258458165e+01 -1.0171301409546718e-01 1.5303335853867646e+00 0 1 0
1316 2 1.0236977773018710e+01 -1.7681975372590033e+00 3.6304692041546431e+00 0 0 2
996 2 1.3223629757750491e+01 -9.2989296874710226e-01 4.2753248626345464e+00 0 1 0
42 1 1.1716720609957967e+01 8.7601295742284258e-02 6.0938525923514533e+00 -1 0 1
344 2 1.2498358707133541e+01 -4.0615010333725081e+00 4.4624534538605953e+00 0 1 1
2551 2 1.1087331321161560e+01 -2.5804265228989811e+00 6.7036267554860238e+00 0 1 -1
3841 2 1.5383686487938380e+01 -3.0927884823805005e+00 5.1826836450182725e+00 0 1 2
2247 2 1.5749201094740524e+01 -1.8658720530743746e+00 2.5895249223421786e+00 0 0 0
3824 2 1.5882460831076337e+01 2.3880660319948444e-01 5.2233254954962476e+00 0 0 0
816 2 1.8019091977308140e+01 -4.0617696597221933e+00 3.3893208815607530e+00 0 0 0
159 1 -3.8631268168831498e+00 4.0817111895888232e+00 1.9330056217313052e+00 1 -1 -1
2544 2 -1.7256880542432120e+00 9.7415531692134483e-01 5.3489046713853696e+00 0 -1 1
1446 2 -2.8993352710619251e+00 1.5455614080906983e+00 2.4252218591384738e+00 1 0 1
3004 2 -2.8664786444444674e+00 3.7401167406888529e+00 4.8692852994933258e+00 2 1 0
2042 2 -1.2494661512997784e+00 5.3294523798442430e+00 2.5725383702643079e+00 1 -1 0
675 2 -7.7559581947610923e-02 2.6031787356240761e+00 3.2053761253980158e+00 0 0 1
1425 2 -1.2969685586409874e-02 4.7326896185840521e+00 5.6981152455002970e+00 0 -1 -1
753 2 2.5487673376348781e+00 1.5712909664506531e+00 1.4382662883024615e+00 0 1 0
2213 2 2.8058396268245911e+00 3.5405929743074385e+00 4.0175065156222445e+00 0 1 0
2971 2 1.0063916653085583e+00 1.9282443553466315e+00 6.6195638855187298e+00 1 0 1
3163 2 4.3653074687433424e+00 5.4563291705442989e+00 1.7183699837673840e+00 0 0 2
252 2 5.4500933763185060e+00 2.6344991360365890e+00 2.1624774809285530e+00 -1 1 1
314 2 5.1123648493508842e+00 1.3292265805458454e+00 4.7462313815148995e+00 0 0 1
991 2 5.6339121434833874e+00 4.6264401896006877e+00 4.7797774760198894e+00 0 0 1
2342 2 8.3354491432647038e+00 3.6595717468855558e+00 2.9248898767230287e+00 1 1 1
759 2 7.8589893451369512e+00 2.4596462039513716e+00 5.4941234853442467e+00 1 0 2
875 2 1.2430794600399306e+01 3.0900169157845880e+00 1.3976293753742457e+00 0 0 0
1819 2 1.0665744912327218e+01 2.5404865708788460e+00 6.3807524610708075e+00 0 1 0
721 2 1.1259024242811210e+01 4.5891440082800887e+00 3.9957403025178575e+00 -1 1 0
1833 2 1.0541917189070425e+01 1.4830017604133321e+00 3.6081549165317597e+00 1 0 -2
566 2 1.3441958579070064e+01 2.4092441218306275e+00 4.4512546871119447e+00 0 1 0
1736 2 1.2940709869190311e+01 8.4613163587507980e+00 4.0265550800028986e+00 1 -1 0
3810 2 1.4833285670344267e+01 9.0062976568025288e-01 2.2293525741640332e+00 -1 -1 0
1624 2 1.7693950264302892e+01 1.8066340996088011e+00 2.9413749269122675e+00 1 0 -1
3997 2 1.6495827291719788e+01 3.5400131667052879e+00 4.9826250106477126e+00 1 1 0
2145 2 1.5273522861941782e+01 4.1002873537844113e+00 2.1538941381060290e+00 0 1 -1
2503 2 -3.1989949060690717e+00 9.6563469647705205e+00 4.4363723113703468e+00 0 0 3
2986 2 -2.3140377764818467e+00 6.9017249588278293e+00 4.8215444665822851e+00 1 0 0
905 2 -5.4990462982299482e-01 8.6126316881853562e+00 2.5825710247436344e+00 0 1 0
931 2 -3.3823188306235590e+00 7.6660134074006105e+00 1.8172105062462931e+00 0 0 1
374 2 1.7104361371551317e+01 6.8728124133806681e+00 5.3176212844140522e+00 0 0 0
2691 2 2.8666489490235145e+00 5.7142165112078693e+00 6.3879978824627948e+00 2 0 0
740 2 3.3685394138414750e+00 8.8621370422338295e+00 6.5320363779615658e+00 -1 -1 0
3370 2 5.3146422440746477e-01 7.9100551143582365e+00 5.6351910467909860e+00 1 0 0
1460 2 1.6643922920143535e+00 6.2892525355872699e+00 3.4973012664768834e+00 0 1 0
361 2 2.2671650547373501e+00 9.5998247257438969e+00 3.4441454428071809e+00 -1 0 0
3669 2 4.5662516891109366e+00 7.4216913378443543e+00 4.1615464195337992e+00 1 -1 0
2137 2 8.6387052298606708e+00 5.5352916484000989e+00 5.5692836977140256e+00 -1 0 0
3106 2 4.7829913691493804e+00 9.0624502339583053e+00 1.6205306491170646e+00 1 -1 1
2914 2 7.1800775399815020e+00 6.4391135689943564e+00 2.4960486132255442e+00 1 -1 0
1922 2 7.7604880669767500e+00 9.5682161536649328e+00 2.4047116928574823e+00 0 0 0
921 2 7.4706129234864260e+00 8.3205877990055512e+00 5.0174748332901782e+00 0 1 -1
3042 2 1.5682548082549335e+01 7.2556510615849774e+00 2.4204092306401099e+00 -1 0 1
3728 2 1.3202524719416175e+01 1.0357154027296641e+01 6.5790611996857891e+00 0 -1 1
2545 2 1.2828110831653088e+01 6.2606742183516548e+00 1.7066583959986010e+00 0 -1 1
2164 2 1.0272296833696187e+01 9.5128186753726656e+00 5.8275176943155458e+00 1 0 1
1299 2 1.0086690476683435e+01 7.4025780185854941e+00 3.3115581046485989e+00 -1 0 1
8 1 1.4407073909144689e+01 7.9298022526492993e+00 6.7289103065908193e+00 0 -1 0
726 2 -2.0840539822300959e+00 -1.9254946797734895e-01 8.0018165059228448e+00 1 -1 0
1810 2 -1.1619945238542098e+00 -1.1115178447664209e+00 1.1028509535125215e+01 0 2 1
2632 2 -1.2509826825018910e+00 -3.0304212049937154e+00 8.3930846793173330e+00 0 0 1
2816 2 -3.8977033374907450e+00 -2.0516805546943226e+00 1.0174707456402281e+01 1 1 1
670 2 -4.1013953608041094e+00 -4.0640548508455900e+00 7.6212350808703597e+00 0 -1 0
2029 2 -1.4723871157399544e+00 -4.1973364314960824e+00 1.1118403515766810e+01 2 1 0
507 2 1.5698391110865826e+00 -2.2168637874226924e+00 9.4180670487731408e+00 1 1 -1
3585 2 1.6903330527988292e+00 -7.2694959292104677e-02 1.1790661715297425e+01 1 0 0
67 1 1.2055419089218251e+00 -3.2132189595647720e+00 1.1852025149655127e+01 1 1 1
731 2 4.3669965065895084e+00 -1.0008098870755817e+00 9.9870000683025424e+00 0 0 -1
192 1 7.2390616543077968e-01 1.1800053901050944e-01 8.7149692139473540e+00 1 1 0
3565 2 3.9202392669611132e+00 -4.2664309586896270e+00 9.8158500181278825e+00 1 1 0
3701 2 2.7391477256643526e+00 -3.5001286659708368e+00 6.9681689289508721e+00 0 0 0
3305 2 3.3265082299121413e+00 -3.3237187844639404e-01 6.9949657153266642e+00 0 1 1
2196 2 6.7209275016097614e+00 -3.2586735829811406e+00 1.0604516330594036e+01 0 0 -2
1189 2 5.6263161977665526e+00 -2.5078309740734728e+00 7.6569137273657297e+00 0 1 1
2824 2 7.2328852752168498e+00 -5.0649363238533418e-02 1.0699875523817935e+01 1 0 0
2655 2 8.5051685639627657e+00 -1.6086469922653923e+00 8.4963323365324097e+00 1 1 1
2067 2 9.5767807198925556e+00 -2.2334674330590079e+00 1.1417571217281912e+01 -1 2 0
1664 2 1.2177734795936122e+01 -3.1169768361677601e+00 9.6079993982006631e+00 0 1 1
1596 2 1.1277927333663962e+01 -3.2276555562248710e-01 8.9028849833636539e+00 1 0 0
2731 2 1.2424155668150409e+01 -1.2797827514498459e+00 1.2192603112501121e+01 0 1 1
398 2 1.7387961470183633e+01 6.8789295172332476e+00 1.3168084659048784e+01 0 -1 0
1620 2 1.3972319105781249e+01 -1.6660850634078961e+00 7.4351051272951629e+00 0 2 0
3397 2 1.5083525523701127e+01 -2.3203159491880920e+00 1.0465679220655124e+01 1 1 0
3233 2 1.6718100631415904e+01 -5.2543176006870951e-01 8.2279741149215297e+00 2 1 1
1468 2 1.6433570608225850e+01 -3.7170519773872459e+00 8.0802285111769674e+00 -1 0 0
3927 2 1.4086354247150211e+01 4.0595094166842749e-01 1.0041119262259237e+01 1 0 0
275 2 1.7975621117451038e+01 -1.3350605607169053e+00 1.1117137385328524e+01 -1 -1 2
1372 2 9.4088564131706498e+00 -4.3607304566515239e+00 8.8945017984497650e+00 -1 0 -1
2403 2 -5.9216111178916453e-01 1.8979798209885859e+00 1.0294396116321394e+01 1 1 -2
1885 2 -1.4827494513759052e+00 5.0246879230449952e+00 1.0449313563429612e+01 0 1 0
359 2 -1.6751094602781422e+00 3.0485999098977317e+00 7.8315904486347527e+00 0 0 -1
3537 2 -3.4575359531548182e+00 1.1791671028786004e+00 1.0262598243266391e+01 1 1 1
3946 2 -4.3648787877688697e+00 4.0825839169588107e+00 9.6935600578482521e+00 1 0 -1
2965 2 1.2993500507077398e+00 4.1088214122779885e+00 8.9032097067001743e+00 0 0 -1
1645 2 3.0560900250479985e+00 1.7010870562831517e+00 9.6236417919854773e+00 1 0 0
752 2 9.5223656914051169e-01 3.2268457227516860e+00 1.2074202447936578e+01 -1 0 1
198 1 4.3157416294641209e+00 4.6596141715994488e+00 8.9935376130651754e+00 1 1 0
1064 2 3.6849336080921820e+00 4.0893574705957523e+00 1.1670336904673906e+01 1 -1 1
3879 2 3.9235348219929502e+00 2.8721159046509115e+00 6.9392475657854948e+00 0 1 0
1566 2 6.1016393026924511e+00 7.1333828894067342e-01 7.7618778665665698e+00 0 2 0
480 2 6.8337898882230590e+00 4.0436255094388560e+00 7.7384103279914793e+00 -1 0 1
1669 2 6.0986585682225254e+00 2.7101732765032605e+00 1.0339451740792994e+01 1 0 1
3166 2 8.8251109168525783e+00 1.7336387764921870e+00 8.6324389803363299e+00 2 1 1
1776 2 8.9474323355855354e+00 3.6853855046656054e+00 1.1094367957479090e+01 0 0 0
828 2 9.8114424455663674e+00 4.9345165563225457e+00 8.3583235966759020e+00 0 1 0
2661 2 1.0118100886697626e+01 8.4523729455532148e-01 1.1543794209478056e+01 0 -1 0
3904 2 1.1697311261202540e+01 2.7052413245637545e+00 9.3771702707778424e+00 0 0 1
889 2 1.1776788061979701e+01 4.7508412237995863e+00 1.1841390106660029e+01 0 1 0
561 2 1.2873571876961858e+01 2.0321179814920578e+00 1.2214404259104310e+01 0 1 1
2294 2 1.3861408131720481e+01 1.3731637802023382e+00 7.3791204033693170e+00 1 0 1
2467 2 1.4544170073353929e+01 3.7169686478122497e+00 9.9481040268406602e+00 0 0 2
671 2 1.7081715039512620e+01 2.4963764625350642e+00 8.0842211443548564e+00 0 -1 0
1998 2 1.6918416995617587e+01 1.3606714406065246e+00 1.0812408839537847e+01 0 0 0
3722 2 1.7294608978722383e+01 4.4036113741139307e+00 1.0938305977810820e+01 1 0 0
3431 2 1.6641236833866323e+01 5.3969980068047541e+00 7.8166009642821734e+00 0 0 0
117 1 1.4701579804052372e+01 3.7260118926189190e+00 6.8845888691428367e+00 0 1 1
3812 2 -2.6511421444334440e+00 5.7811298232911366e+00 7.5000815933697105e+00 0 0 -1
3418 2 -2.0835990888269240e+00 8.9654565244872835e+00 7.4470519105241202e+00 1 1 0
1713 2 -1.0253604954813826e+00 8.2220134363333255e+00 1.0596578995721440e+01 1 1 2
2170 2 -3.8514046470281826e+00 7.3478881415167461e+00 9.6292853136669905e+00 -1 0 0
2761 2 -3.9942986064105415e+00 6.0757979493035172e+00 1.2248268205691016e+01 0 1 1
2396 2 -3.7194366407922148e+00 9.3891297504921933e+00 1.2231137615152591e+01 1 -1 0
3698 2 2.3488093670118992e-01 6.8107732013691109e+00 8.3079729858626212e+00 0 -1 -1
2424 2 1.2274841362877966e+00 6.2091327347722931e+00 1.1323997502152588e+01 0 0 0
843 2 1.9740670882383906e+00 9.2542989841263257e+00 1.1072888929626950e+01 0 1 2
3619 2 3.2176970017300546e+00 7.2335234429516007e+00 9.0937098637064473e+00 0 0 0
1501 2 4.1373580892082806e+00 7.1013500076919414e+00 1.2012118566159337e+01 1 0 0
835 2 7.7547647183252000e-01 9.9615802594222149e+00 8.2012401681253806e+00 0 1 1
3556 2 6.8135404506417814e+00 6.0195827002022568e+00 1.0215784759103043e+01 0 -1 0
2356 2 5.8378605936882018e+00 8.7969734365378365e+00 9.8333102000236448e+00 0 1 2
2981 2 8.5645668121436636e+00 7.7293975069805327e+00 7.9450573297011235e+00 0 0 0
2204 2 5.7117945712946376e+00 6.7807042897852501e+00 7.1847196202114709e+00 2 1 -1
1695 2 6.2813819911433644e+00 9.9505778510691947e+00 7.1201529415332221e+00 0 1 1
253 2 8.8414647917889315e+00 9.3218494509927705e+00 1.0602469237655011e+01 -1 -2 0
1 1 1.2198997609214658e+01 5.9174311926682996e+00 9.4716265546087772e+00 -1 0 0
61 1 9.8097102083191210e+00 6.6635673174095942e+00 1.0540648612353763e+01 0 0 0
3024 2 1.2179217471361980e+01 7.8748834558797363e+00 1.1657557064911920e+01 1 0 0
964 2 1.1477252741636352e+01 8.7302988031059723e+00 8.7437492557469909e+00 0 0 2
46 1 1.3905126108431801e+01 5.9047016087870254e+00 7.8086639092291641e+00 1 0 1
155 1 1.7686874737286949e+01 6.7359933947034385e+00 1.0025699913420770e+01 1 0 -1
2608 2 1.4841892500713175e+01 6.9351736292341322e+00 1.0086481648732908e+01 0 0 1
3195 2 1.6821769618874576e+01 8.7658642495913455e+00 7.9550844701821255e+00 0 0 1
190 1 1.6673229309983551e+01 8.7698459924807040e+00 1.0890431945045075e+01 1 0 1
2538 2 1.4248300393019953e+01 9.9681572966449163e+00 9.5643286269622063e+00 0 -2 0
2455 2 2.9931569171871466e+00 1.0499872943891940e+01 1.6824940362161325e+01 0 1 2
129 1 -3.2757081761379223e+00 -4.0837103189910513e+00 1.5809994370932191e+01 1 0 2
262 2 -2.9665289628297109e+00 -2.7606271109307516e+00 1.3344034701655900e+01 0 2 1
382 2 -2.6525262010868840e+00 -8.9382152429736861e-01 1.5761999513933198e+01 -1 0 0
1796 2 -3.8389897214926414e+00 1.5118789402052890e-01 1.3054696351047419e+01 1 0 0
3539 2 -5.1095034701828501e-01 -3.0321681903438304e+00 1.6529149282436318e+01 0 0 2
2268 2 -4.2816050942814918e+00 -2.3726104539506006e+00 1.7874567486294239e+01 0 0 0
1405 2 -2.0774421718135372e-02 -1.8764409841821874e+00 1.3865841661641380e+01 1 0 0
3156 2 9.3100675561499813e-02 2.6020006753031932e-01 1.6429312543287057e+01 -1 1 -1
1597 2 3.9562172218762370e+00 -2.6390531276229359e+00 1.2496802264693212e+01 0 1 0
2555 2 2.3300242304256411e+00 -1.9002822953216296e+00 1.7385306431550671e+01 2 1 -1
2948 2 2.1495713451286766e+00 -3.9858444025669919e+00 1.4829931184311043e+01 0 0 -1
1715 2 2.8405991184667396e+00 -8.7300422937237654e-01 1.4660640676808299e+01 -1 0 0
1968 2 6.5394463124013953e+00 -4.3725849795571454e+00 1.3427248796671535e+01 1 2 -1
2425 2 4.9547864383259039e+00 -2.9967974416875958e+00 1.5616162600627547e+01 0 0 -2
1333 2 6.7261156638669153e+00 -1.3614005371589908e+00 1.3268123080802880e+01 0 0 1
512 2 7.8335699425426881e+00 -1.9881908824981354e+00 1.6278502471575237e+01 -1 1 0
1541 2 5.5525361015365089e+00 3.4221487888874691e-01 1.5463145682063459e+01 0 0 0
55 1 8.9756058535084584e+00 -3.4998739581333567e+00 1.4062180935049891e+01 0 1 1
1470 2 1.3133098790191351e+01 -3.2302913968798963e+00 1.7841734774894348e+01 0 0 -1
3863 2 1.0302214067170318e+01 -4.0308798158066104e+00 1.6744650065275223e+01 1 0 0
26 1 1.1296328615174190e+01 -2.9317371066563327e+00 1.4437969639356144e+01 -1 0 1
468 2 1.0792228881629388e+01 -9.7079703151681596e-01 1.7051335640368954e+01 -1 1 1
1050 2 9.7685573621219248e+00 -6.2834847117688053e-01 1.4087946830942350e+01 0 -1 -1
1917 2 1.3609681436763122e+01 3.6561069267046165e-02 1.7862857618194237e+01 -1 -1 1
2456 2 1.3576734157392355e+01 -1.9366081421312771e+00 1.5209226233148826e+01 1 1 1
853 2 1.7684983075180352e+01 -2.4100361793840603e+00 1.3792933803936670e+01 1 1 0
3492 2 1.5876405999079150e+01 -4.1662444041975624e+00 1.6025664227876856e+01 1 0 0
1016 2 1.5246660302610540e+01 -3.1123397276587816e-01 1.3029078589275269e+01 0 0 0
2954 2 1.6387251072557156e+01 -1.0388108287603015e+00 1.6076261965364797e+01 0 0 0
1644 2 1.4862180032148586e+01 -3.6866330927614639e+00 1.3074679739842654e+01 0 1 1
1086 2 -2.9387436275394738e+00 3.2045741790770386e+00 1.2677194284653929e+01 0 0 1
2239 2 -8.5697080694157712e-01 1.0191387460285268e+00 1.3423032830974211e+01 0 0 2
1633 2 -2.8305882229460231e+00 2.1232836651179223e+00 1.5679454832583975e+01 0 0 0
29 1 -7.4854461522270244e-01 5.0530127817831936e+00 1.3390319839853777e+01 0 0 0
1404 2 -3.1154960024635021e+00 5.3126700192437113e+00 1.5305576359622609e+01 0 0 0
537 2 -3.0303388284479915e-01 3.3967824745909247e+00 1.5584798705829520e+01 0 1 0
2253 2 1.7944311879300567e+01 1.0136488685849077e+01 1.3147381167004728e+01 1 0 -1
2057 2 4.4955847526012622e+00 9.8102924297188476e-01 1.2461095599599901e+01 0 1 0
2962 2 2.0292182542435659e+00 1.8659642361038902e+00 1.4446184072892596e+01 0 0 0
1258 2 2.9581635633759316e+00 1.2932741100184764e+00 1.7305567593024012e+01 0 1 0
86 1 2.0986476032714760e+00 4.0531792210484454e+00 1.6923709906277953e+01 1 1 0
2553 2 2.2618224921068704e+00 5.1433548011615819e+00 1.4249329511527769e+01 0 0 -2
2044 2 4.6640672258540175e+00 3.1721403599787266e+00 1.4918039905202296e+01 2 0 0
2787 2 4.7215292428356967e+00 4.9729733526242690e+00 1.7514222148626892e+01 0 1 0
2429 2 8.5221689564204421e+00 1.2103323273956184e+00 1.6130772897871864e+01 0 1 1
1113 2 7.4524432276149284e+00 4.0520888197600318e+00 1.5799749826595338e+01 0 -1 1
3270 2 7.4165608865307195e+00 1.7731851078966789e+00 1.3295017176441839e+01 1 -1 1
3355 2 6.4671151653120766e+00 4.6844116648141387e+00 1.2846368486698410e+01 1 -1 1
2000 2 5.8241228800013563e+00 2.2135434540668939e+00 1.8041496759556754e+01 1 1 0
303 2 1.2425564157971376e+01 7.6177600596755468e-01 1.4794883302839001e+01 0 -1 0
1228 2 1.1283957374229221e+01 2.3021097448357590e+00 1.7071656580279974e+01 0 2 0
911 2 1.0143710850150152e+01 3.0037888659124805e+00 1.4029927149167296e+01 -1 1 0
668 2 1.3035989684332630e+01 3.8845416453698629e+00 1.4890286800324173e+01 0 -1 0
3344 2 1.0279143112005857e+01 5.1141529497188820e+00 1.6540513040046637e+01 1 0 1
83 1 1.7574690486835294e+01 2.6873301900421245e+00 1.6026258409405376e+01 -3 1 1
3177 2 1.5680753611670404e+01 2.8853890636293391e+00 1.3083608788238354e+01 0 1 1
1621 2 1.5857752278589103e+01 4.9771405106496776e+00 1.5580012497812262e+01 0 1 -1
3178 2 1.5246809775306577e+01 1.6172634318879222e+00 1.5668489688849512e+01 0 1 0
2735 2 1.4175781478982071e+01 3.3388723282372332e+00 1.7834276476145885e+01 0 0 -1
13 1 -2.8663367972433744e+00 8.2605746527006474e+00 1.5880047378538201e+01 0 -1 1
2198 2 -1.5893383541308310e+00 7.5853960778979488e+00 1.3500695288861387e+01 0 1 -1
1837 2 -2.0047837149517367e-01 6.4030533711349182e+00 1.5990791926732573e+01 1 -1 -1
594 2 -7.1927992923501582e-01 1.0447347541051920e+01 1.2870130486905850e+01 0 0 0
1897 2 -3.6221401011776067e-02 9.5391348490323509e+00 1.5948793929481496e+01 0 0 0
1518 2 1.4953958012082582e+00 8.1126410350318992e+00 1.3819183525488896e+01 1 0 1
3128 2 2.5986511580820784e+00 7.2075907101038581e+00 1.6641123146654575e+01 1 0 -2
2959 2 4.3265470185475614e+00 9.1699145195487173e+00 1.4413937371275239e+01 0 -1 0
3077 2 7.0544917244287060e+00 1.0117660706583873e+01 1.5404884074067567e+01 0 1 0
3825 2 6.8983332692614603e+00 8.0540582089731032e+00 1.2748633082377140e+01 2 0 0
1976 2 5.1220782394954263e+00 6.3391458579774440e+00 1.4944204545688432e+01 -1 -1 0
2636 2 8.0333185528220472e+00 7.2286949429599989e+00 1.5624934074953945e+01 1 1 0
1671 2 5.3516674510429301e+00 8.2283019691777000e+00 1.7447334861310065e+01 -1 1 1
2354 2 9.2370848156305083e+00 5.9535579398497642e+00 1.3219134178778237e+01 1 1 1
2711 2 1.3115932529852774e+01 6.1426455826956783e+00 1.7344012931511468e+01 1 0 -1
2687 2 9.7459725336020622e+00 9.0617695394645157e+00 1.3532874999349456e+01 -1 1 0
1127 2 1.1975786427402799e+01 6.7538500783727162e+00 1.4374452889207550e+01 0 2 1
3970 2 1.0822407385553849e+01 8.3491813895976659e+00 1.6539628228619083e+01 1 1 0
912 2 1.2520270080791498e+01 1.0077577590143040e+01 1.4335666654671670e+01 -1 0 0
2508 2 1.6597550924758846e+01 1.0355743239545555e+01 1.7910716097205707e+01 0 -1 1
2848 2 1.4549013280516931e+01 5.6969956590159025e+00 1.2672803167550192e+01 0 1 0
3464 2 1.4867379953430394e+01 8.9446262054172525e+00 1.2695084841934516e+01 0 0 2
1088 2 1.3681868966920145e+01 9.3366977498252268e+00 1.7391075411156894e+01 -1 1 0
1774 2 1.4828713946139867e+01 7.7631078036708097e+00 1.5236435526029975e+01 0 -1 -1
2105 2 1.7741023434878823e+01 8.7622548827065749e+00 1.5718951313153543e+01 2 0 1
3239 2 5.2797393014454670e+00 -9.8997278377930842e-01 1.8031611554421023e+01 1 1 0
41 1 1.2340933629669141e+01 4.3455382849361825e+00 6.8708113604733114e+00 0 0 0
1632 2 -1.9245761897044749e+00 -2.4870020303240814e+00 2.1081653396321563e+01 1 1 0
132 1 -1.5383929564487389e+00 -1.5375525131285430e+00 1.8554372917358997e+01 1 1 -2
1230 2 -3.1880223185434868e+00 -1.0719364353675784e+00 2.3475138750298186e+01 0 -1 -1
683 2 -3.6839134324323557e+00 -4.3085906574498640e+00 2.3566644649747467e+01 0 0 0
2061 2 -4.3288363903669316e+00 -3.7466253460812649e-01 2.0504825991532680e+01 1 2 -2
950 2 -1.5073871970171679e+00 5.9243659263869120e-01 2.1373008499335889e+01 -1 0 0
2372 2 9.0943681761933171e-01 -3.4730880197894098e-01 1.9510498260002844e+01 1 0 -1
1053 2 7.0271250778774519e-01 -3.6396925174223536e+00 1.9526614541845220e+01 1 0 -1
693 2 8.4937852702872974e-01 -1.5226486552070289e+00 2.2211428749826826e+01 0 0 0
894 2 3.4970635733053728e+00 -2.6656238451888621e+00 2.0308639613794597e+01 1 1 -2
410 2 3.6843720571060370e+00 -4.2007025453013469e-01 2.2884100382160753e+01 -1 -1 0
3715 2 1.8085429514228109e+00 -4.3306824938071378e+00 2.2565876833265722e+01 1 1 0
467 2 4.5854369776539023e+00 -3.2146536370037442e+00 2.3417629976332037e+01 -1 0 1
3312 2 6.1555449959807955e+00 -3.7383360207096730e+00 1.8496843388931609e+01 0 0 1
1463 2 6.3263900598603282e+00 -1.5898353981155866e+00 2.1049997782337737e+01 0 0 1
1116 2 8.1935761195409462e+00 1.2671926872980244e-02 1.8752385359438005e+01 0 0 0
3974 2 8.7199260825093816e+00 -3.8706258256417794e+00 2.1810409770398650e+01 1 1 -1
3484 2 6.4809560644130197e+00 3.7539085560779561e-01 2.3619900527311703e+01 1 0 0
263 2 1.7146155899918309e+01 8.4672332063896505e+00 2.3764085530914567e+01 0 -1 -2
787 2 9.0625519027260530e+00 -2.7243470359637696e+00 1.9161744146549321e+01 0 -1 0
1961 2 9.1997312892597787e+00 -6.2924313639540408e-01 2.1850629038588679e+01 0 1 -1
2108 2 1.1882073031186700e+01 -1.6633256594863153e+00 2.0043681554898988e+01 0 0 0
3659 2 1.1495015793409403e+01 -2.7872820649035752e+00 2.2722516352051237e+01 1 -1 -1
328 2 1.2030895010250454e+01 3.9582392930620536e-01 2.2656747483790166e+01 -1 1 0