LAMMPS data file via write_data, version 3 Mar 2020, timestep = 1342093

864 atoms
2 atom types

-7.0554733452341978e-01 2.2365547334521899e+01 xlo xhi
-7.0554733452341978e-01 2.2365547334521899e+01 ylo yhi
-7.0554733452341978e-01 2.2365547334521899e+01 zlo zhi

Masses

1 63.546
2 91.224

Atoms # atomic

455 1 1.8261935656305810e+00 3.0817793161453215e+00 5.4520773626252184e-01 -2 -4 0
221 2 3.1997853219834296e+00 7.8140367119764065e-01 1.3168088142079992e+00 -2 2 0
217 1 8.0577503248433691e-01 1.8453350006999942e+00 2.4795408793029177e+00 -3 3 3
581 2 5.9718337533285082e-01 4.5781717312615013e+00 2.5373585000191801e+00 -2 -3 0
845 1 3.0383550604515239e+00 3.0331881760908406e+00 2.8484935933000837e+00 0 1 1
729 1 -5.4840083614087398e-01 -3.8123167623977472e-01 5.0251496976951526e-02 -2 4 0
3 1 5.2670570963982377e-01 -5.0764116282854499e-01 2.3205226372898546e+00 -1 -3 4
713 1 3.7142171774842447e+00 4.6101157860941475e+00 -5.2743539790944682e-01 -1 0 -1
551 1 4.7675889996411502e+00 -6.0415034228668318e-01 3.1704285381011110e+00 1 1 -2
378 1 5.1957745030169802e+00 1.8341005496281726e+00 3.3245237557461085e+00 2 0 0
506 2 5.4329230099446715e+00 4.7204049591193051e+00 3.5040153644180014e+00 0 3 0
585 2 5.7795798027964187e+00 3.0953619729197848e+00 7.2351556770751846e-01 -1 2 1
501 1 6.3799974095192473e+00 5.2010261242007227e-01 1.5895029961565106e+00 1 3 0
505 1 8.7990884570382271e+00 1.6162611086598502e+00 1.1869500548941938e+00 1 -1 3
636 1 7.4956019402337581e+00 2.7556883929714266e+00 2.9176756239324781e+00 0 4 -1
268 2 1.0434753502877113e+01 3.6750594511598607e+00 2.5104578339954813e+00 -1 3 0
216 1 9.9763235707165840e+00 1.2859086623619003e+00 3.5590665460514659e+00 -1 3 -3
34 1 7.8216020217067097e+00 4.8488618935425318e+00 1.5262883504047910e+00 -1 -4 -2
374 1 7.7666711698604995e+00 -5.1582050704057070e-01 -1.4819851245885696e-01 3 5 0
459 1 3.1785596068493258e+00 5.3628297200235551e+00 1.8354658513714703e+00 0 -1 0
529 1 1.4886641869984349e+00 5.4266144075545162e+00 -5.7924285864963676e-02 0 3 2
586 1 4.3235755980345560e+00 9.5476315477603908e+00 1.0387652797255951e+00 -1 -2 -2
409 1 7.7280911249083517e-01 7.1681805719729237e+00 1.5036250179602977e+00 2 2 0
61 1 9.2242532514514042e-01 9.3820724005157814e+00 5.1699230303327681e-01 -1 1 -3
367 1 2.4628888611167095e+00 9.0416110015647995e+00 2.4489223607950104e+00 2 -1 1
219 2 3.0829694471759885e+00 7.5756766035644176e+00 -1.9766430151174430e-01 -1 -1 0
5 1 4.4781312054644777e+00 7.4363784525983849e+00 2.4225505144512267e+00 -2 0 3
802 2 -3.9717216806022460e-01 9.1300887153807739e+00 3.1547489172490226e+00 2 -1 1
850 1 2.0778503842419087e+00 6.9328530217434103e+00 3.5677444721247147e+00 0 1 3
194 2 1.0780067527546317e+01 1.0606975111023372e+01 1.8394925783042853e+00 -2 -1 1
209 2 8.5336304970722843e+00 7.4313873165316195e+00 2.2216907693219545e-01 -1 -2 2
377 1 8.8510784298711371e+00 8.6099918758163341e+00 2.7032977031679453e+00 -1 -1 3
570 1 7.0137276775609383e+00 6.9262479254971190e+00 2.9422171768379610e+00 -3 -3 3
30 1 5.5598524105214526e+00 6.0850370948430124e+00 7.7302262305828617e-01 -1 -1 -1
19 1 9.6433161597523878e+00 6.2714997508102570e+00 2.6010937461129702e+00 -3 -2 2
741 1 6.5388730193191575e+00 8.9908154787790604e+00 1.6680127518327650e+00 -1 -1 3
254 1 8.2758818891290691e+00 1.0341460040573168e+01 7.2193243151406628e-01 1 -1 1
413 1 1.0123672565148631e+01 5.1957947734629206e+00 2.8190866757622657e-01 0 0 -1
358 1 7.7878535522702705e+00 1.0808750470911644e+01 3.1964662761065719e+00 2 -2 1
205 1 5.4822882455779318e+00 7.3974452869072183e-01 -6.9499121294873589e-01 1 -2 2
213 2 3.7748705995383744e+00 2.4223695234116884e+00 5.6730539857520936e+00 -1 -1 -2
16 1 3.1766288796432542e+00 4.2405164709554874e+00 7.6129798853698336e+00 0 -1 2
187 1 3.3788850583120933e+00 -5.5110186567623010e-02 7.1962859409428788e+00 0 3 -1
243 1 1.5059641849864631e+00 1.5937048249396382e+00 6.7917185883030591e+00 -2 2 0
715 1 2.7489712353685825e+00 4.7849147072230336e+00 4.5716613332778406e+00 -1 -1 3
707 1 1.1508162243851854e+00 2.8188095395896369e+00 4.6526936139637760e+00 1 1 3
579 1 9.6495842468132320e-01 4.2182654263097472e+00 6.6118053523187914e+00 4 3 -2
443 2 -3.9343344187116375e-01 5.5576400380135316e-01 4.7936744667640721e+00 2 0 0
96 1 2.3053584126707189e+00 4.0160972442910281e-01 4.1185245228694782e+00 -1 3 -1
698 1 6.4848138739057948e+00 6.9795402703198812e+00 5.5027320805850044e+00 -1 1 -1
245 1 4.9026492564823370e+00 5.0665339065781971e+00 6.1069692488360046e+00 1 -2 -6
62 1 5.2617368521940824e+00 1.5509705892043391e-01 5.5230791745269912e+00 0 0 0
282 1 7.4871383733786079e+00 -4.0489948255703445e-01 6.7722788446640614e+00 2 -1 0
765 1 9.9030534055665065e+00 4.2746907795746507e+00 6.7491629570669698e+00 -1 1 1
64 1 5.5778685219141098e+00 3.4099151991883154e+00 7.7008364474490367e+00 3 0 3
727 1 5.5366934257503919e+00 9.7139123583341647e-01 7.8063873357744260e+00 -1 -2 2
533 2 8.0791794874651863e+00 2.2292758400899721e+00 7.7376375843706793e+00 -1 -2 1
614 1 6.4374561196448843e+00 2.6249866871586791e+00 5.3991781796250935e+00 -3 -2 3
160 1 9.5472700882666608e+00 7.0996163056350325e-01 5.9788921103787738e+00 1 1 0
692 1 8.8351239824296179e+00 2.8593953511456016e+00 5.0374049328437680e+00 1 1 1
157 1 9.4951870959991869e+00 -1.8899078697139526e-01 8.3318237270296578e+00 -3 2 -1
846 1 7.4236278192564562e+00 4.7965974846617572e+00 6.4132860505419211e+00 3 -1 2
150 1 1.0773732024454135e+01 2.0625570514680693e+00 8.1256844613805068e+00 -2 1 -1
122 1 8.1700208007881905e+00 4.8918657391045590e+00 3.9897065236620923e+00 -1 2 1
109 2 7.5136333743203370e+00 2.5120633935755365e-01 4.0304036073678038e+00 -1 1 2
772 1 -2.3769968153932158e-01 6.5728373262539801e+00 4.2116631152631099e+00 -2 1 0
842 1 4.2240538273501498e+00 6.9291561660660594e+00 4.7430423149585286e+00 -1 -1 0
384 1 1.9887555003101349e+00 9.6867294480016479e+00 7.0921896659006949e+00 1 0 0
204 1 4.5742866505377258e+00 8.4331939227488526e+00 6.8861202849211320e+00 2 4 -1
63 1 4.4845919617766250e-01 8.4010986675305688e+00 5.6745392869031894e+00 2 -2 1
81 1 2.8076848545270670e+00 8.9608034968125523e+00 4.8837952144063541e+00 -1 -3 1
247 2 2.2906580276274147e+00 6.6455017837907686e+00 6.5147034170424742e+00 -2 1 -1
148 1 3.7013191730927009e-01 7.5827783499058228e+00 8.3052105459693486e+00 3 -3 -1
115 1 4.7998444174287931e+00 6.2742671206292400e+00 8.2945702313668423e+00 -1 1 1
299 1 9.8998936533118211e+00 8.7799510297741215e+00 6.9880695686022483e+00 -1 4 3
684 1 9.8948658288862905e+00 9.8850646519290581e+00 4.4875921910593668e+00 3 1 4
787 1 8.5480053885012470e+00 1.0559462870899026e+01 8.3319803099361831e+00 -2 1 0
151 1 7.8509611960096528e+00 9.3543089709094041e+00 5.6808753275957402e+00 1 -3 1
395 2 5.5141064113752591e+00 9.3249115327821652e+00 4.2063967638362936e+00 0 4 0
587 1 9.3141507465822464e+00 6.1705696322818131e+00 7.9949246392758067e+00 -2 -1 1
259 2 9.1198281760124384e+00 6.9969020301853666e+00 5.2357863741001660e+00 0 1 1
264 1 6.2177668165739961e+00 1.0482832581025049e+01 7.0876698725681342e+00 3 0 2
432 2 7.2992369909416315e+00 7.8886853394127545e+00 8.0885264170718685e+00 1 1 -2
332 1 -6.6459011381202515e-01 6.1392318044948864e+00 6.5849223804718386e+00 -2 2 -1
566 1 3.9623287162568088e+00 1.0813926355253709e+01 6.0281748007763891e+00 1 -1 -1
470 2 9.6006028185199788e-01 3.1893503020467029e+00 9.3210047336650454e+00 -1 -3 -1
793 1 1.2043821927187681e+00 1.3612486225173726e-01 1.1952931886669793e+01 0 2 3
511 1 2.8919484697402806e+00 1.9979030281181855e+00 1.1007184503351779e+01 -3 -1 -4
52 2 4.5847433488128786e+00 4.1089416639721525e+00 1.0036673101341854e+01 -1 3 2
232 1 7.4574711436486329e-01 2.5385447379220478e+00 1.2023330663948752e+01 1 1 2
862 2 1.2950416912820994e+00 1.6793098219733071e-02 9.1562744649612231e+00 2 3 2
612 1 2.3193720221303047e+00 4.5668972649832531e+00 1.1377491358196984e+01 1 -2 1
786 2 4.3556277734758160e+00 -2.6765579344968943e-01 1.0211507902824557e+01 1 0 -2
777 1 -1.9144011620393586e-02 4.8413794447198963e+00 1.1853994062906354e+01 3 0 -2
525 1 3.5266773134850729e+00 5.9089780722433649e-01 1.2900912544977892e+01 -1 0 0
611 1 3.3802698755472074e+00 1.9757432721946162e+00 8.5417961908965179e+00 0 0 0
110 1 5.2859254226986963e+00 2.4252485802598622e+00 1.2084825667360278e+01 0 0 3
574 1 6.6211492449368130e+00 2.2498143833740500e+00 9.9808168396042358e+00 -1 -2 1
759 1 9.6150602807824672e+00 4.0347573432258335e+00 9.3993058731782035e+00 -2 2 3
55 1 9.1621705728474190e+00 1.6410542338352574e+00 1.0299471433937304e+01 2 -1 -2
843 1 6.5836822700407600e+00 3.1093014851127054e-01 1.1678098977428240e+01 0 0 -1
835 2 7.7501053508093865e+00 3.9753906718801337e+00 1.1927094000403979e+01 -3 -2 2
418 1 7.1574674692365550e+00 -5.7128506281575731e-02 9.2833644306047969e+00 1 4 -1
304 1 7.2573325723833610e+00 4.7156360143674991e+00 8.9974436435874967e+00 -1 2 2
40 1 8.7302737162454775e+00 9.2604303060480877e+00 1.3081573715096290e+01 0 2 -2
783 1 8.5368929007755661e+00 1.0104191033419794e+00 1.3011104723525511e+01 -1 5 2
680 1 -5.7135750687995168e-01 5.6628986765598439e+00 9.4837799744498579e+00 1 4 0
664 1 1.9775374915756103e+00 5.6790969107518405e+00 9.1328862467589129e+00 2 0 1
800 1 4.9247738243040651e-01 9.8610978035795824e+00 1.1842176274396623e+01 1 1 -2
11 1 1.1924704348263138e+00 9.5431030156450198e+00 9.5056564589700905e+00 2 1 -1
524 1 3.8739875069560190e+00 6.5951284778282879e+00 1.0760292574015674e+01 -1 1 0
208 2 1.1670874902056549e+00 7.2154087555496540e+00 1.1235559112389167e+01 -1 -2 -1
819 1 3.1949534260869950e+00 8.9836871426863478e+00 1.1057411866835922e+01 -3 -1 3
74 1 2.8910460222123908e+00 7.9421774617692407e+00 8.7892417854214671e+00 -2 -2 -1
575 2 3.8012440169415962e+00 1.0679724613890626e+01 8.8023713685531568e+00 3 3 -3
312 1 3.3705219377120574e+00 7.1736055120035900e+00 1.3087462058871186e+01 0 -3 -1
778 1 5.1500493472104889e+00 5.2836856929135969e+00 1.2623482360642139e+01 2 -2 1
839 1 9.9266175605565063e+00 8.3021304202870638e+00 9.3040031035576423e+00 -2 0 4
758 1 1.0324628449693117e+01 5.3413539996673753e+00 1.2246704219125885e+01 -4 -1 -1
26 1 5.1658615245653401e+00 8.4083786593699426e+00 9.5863490670926872e+00 -3 2 -4
334 1 1.0186847169817074e+01 7.8497470194452212e+00 1.1683369598507850e+01 1 0 -4
166 1 6.3535338672437716e+00 6.3660217986245469e+00 1.0604926225869251e+01 1 -1 0
852 2 5.7210336452793324e+00 8.4401077793934274e+00 1.2312385819867758e+01 0 3 0
452 1 8.0736996603707922e+00 6.8314721926421020e+00 1.2578356532305815e+01 -2 -2 -1
89 1 8.7822149668077163e+00 6.2147696206500678e+00 1.0339051278917065e+01 -1 -2 -2
522 1 6.4988931477942868e+00 1.0441257529808555e+01 9.6368794101413418e+00 1 1 3
274 1 7.9159920777575419e+00 8.6258557311183406e+00 1.0710143959158437e+01 0 -1 -4
45 2 9.8904888932889552e+00 1.0680411077247886e+01 1.1012922003560153e+01 2 -2 2
244 1 1.6558693485327165e+00 1.1321623465156958e+00 1.4501501136902160e+01 3 -1 0
345 1 3.8397653744568387e+00 1.8174042503237224e+00 1.5690767129336411e+01 1 -2 0
32 1 4.1406170303094259e-01 3.6063916888399783e+00 1.4249713980928792e+01 2 2 3
300 1 2.2659517065276389e+00 3.7626864790368959e+00 1.6078447300687369e+01 1 1 -1
752 1 2.3998543112117554e-01 2.3510518752301479e+00 1.6370696163100224e+01 -1 1 -1
212 2 3.2288612036040014e+00 3.3830130729871524e+00 1.3584574351168426e+01 -2 0 -3
375 1 4.7615071268430000e+00 4.1375837571538057e+00 1.6179249022887166e+01 -2 1 0
167 2 2.0792354909646877e+00 2.7745491684016643e-01 1.7388941268605123e+01 0 0 0
130 1 -3.5020241967851207e-01 -5.2035308332597840e-02 1.6019032913397520e+01 1 1 -1
152 1 3.5879574997345953e+00 -5.8454341944802835e-01 1.5114945658160119e+01 -3 0 -1
478 1 5.0740071196755707e+00 -3.1939674430898957e-02 1.7108394431657594e+01 -1 -1 -2
47 2 5.8877934297409595e+00 8.2696671195388660e-01 1.4296750548436744e+01 2 2 -2
820 1 8.2610821538516248e+00 2.5183757485837082e+00 1.4947063054238692e+01 1 2 2
717 1 6.3280517718368516e+00 2.0635241536120441e+00 1.6875826821147751e+01 3 0 -4
476 1 6.1340205269954788e+00 3.5801250423634015e+00 1.4226497454023757e+01 0 1 -2
826 2 7.5307524817478910e+00 4.5818699161003504e+00 1.6861302731619169e+01 0 1 2
177 2 8.1981838077503877e+00 -1.5033530866512290e-01 1.5862008066697207e+01 -1 0 1
813 1 8.8907963863894395e+00 2.1683916186940384e+00 1.7386460437205475e+01 1 1 2
383 1 1.0479083027501659e+01 3.2743897804027191e+00 1.5909673781046955e+01 0 1 -1
582 1 9.0993834749658458e+00 4.8338388413512021e+00 1.4439452802210862e+01 -1 -3 -2
626 1 1.0706276349849166e+01 1.0278147097795358e+00 1.4832156100512929e+01 2 -2 2
691 1 4.6963508557782516e+00 8.5636080389412275e+00 1.7678328246133294e+01 -4 1 1
94 1 1.2601086916396256e+00 7.8791968517757383e+00 1.4291349927147138e+01 2 0 0
609 1 2.6191757696143423e+00 8.0724055701775619e+00 1.6468496469129374e+01 0 4 -2
138 1 5.7389877127466149e-01 9.3052958040656204e+00 1.6477412865323835e+01 2 -1 -1
583 2 4.9471891269783597e-01 5.7881362931068132e+00 1.6388154341837051e+01 0 1 -1
557 1 2.0966766322152397e-01 1.0142036700979951e+01 1.4235100105246511e+01 0 3 2
80 1 3.2984878586427664e+00 5.9844441483820434e+00 1.5253833848719786e+01 -1 0 -1
829 1 1.5346495544202181e+00 5.6001332432432909e+00 1.3614325573175005e+01 1 0 2
10 2 2.8844080144755684e+00 1.0050234228722031e+01 1.3481919755118444e+01 -2 0 -1
549 1 4.5973032826058891e+00 8.3864104070411436e+00 1.4959863127385544e+01 2 -2 -5
108 1 3.9916853788173832e+00 1.0592062747639156e+01 1.6118557483538975e+01 0 2 0
679 1 5.4925263833234279e+00 6.5489740809417727e+00 1.6285009225071548e+01 2 4 -4
249 1 1.0267227638450409e+01 5.5722259396695639e+00 1.6728169381882850e+01 4 2 0
735 1 8.0847110548499810e+00 7.1293911682446618e+00 1.6466534470700996e+01 4 0 -3
649 1 6.8426293634829953e+00 5.8974499414641519e+00 1.4395415289138342e+01 -1 3 4
482 1 7.1124242140291152e+00 8.3428152701358638e+00 1.4640755712049192e+01 -1 -1 2
561 1 1.0307608152244368e+01 8.0728868075868210e+00 1.7442196356805166e+01 1 -3 0
642 1 6.3735601073645718e+00 9.9447754806869959e+00 1.6355929917021371e+01 -2 0 -3
285 1 5.5506974866707477e+00 1.0587517293992894e+01 1.4002271492302885e+01 0 -1 -1
471 2 1.0099374034177981e+01 7.4154074373911172e+00 1.4518197829535955e+01 1 2 3
747 1 8.8874419901505277e+00 9.4787773317588471e+00 1.5983516549399603e+01 0 2 -1
316 1 1.0131723114711884e+01 2.9785649898236155e+00 1.3193122218261923e+01 -3 1 0
149 2 7.6002678692372361e-01 3.6352755460956363e+00 2.1100003451506652e+01 2 -2 0
555 1 2.2542870106633877e+00 1.5150596556151670e+00 1.9857203873137017e+01 0 3 -2
236 1 3.4366358503929364e+00 3.8099730686734832e+00 2.0071320457395608e+01 0 -1 -4
371 1 1.2621480569397741e+00 3.4415435310121172e+00 1.8392731571868037e+01 1 1 -1
20 1 3.2895378432459967e+00 -2.5568235221684465e-01 2.1502625223337841e+01 -1 0 -5
407 1 3.5391372900313254e+00 2.2328557920686807e+00 2.1966872699887372e+01 -1 3 -3
656 1 -2.4062505286287716e-01 1.3527475064217893e+00 1.9120425704883605e+01 0 1 -2
769 1 3.5509061066440779e+00 2.7077138097272466e+00 1.7898421629759390e+01 1 4 0
269 1 1.1910316805456815e+00 1.0238343354555435e+00 2.2096073802743028e+01 3 -3 -2
755 2 5.0689895759094457e+00 1.2372204698692189e+00 1.9643415208014979e+01 1 1 -1
657 1 1.0012133414505048e+01 6.9782788039638999e-02 1.7777985899511840e+01 0 0 1
702 1 5.4627470783795271e+00 4.1168345895391978e+00 1.8609517963945599e+01 3 0 1
410 1 7.4061814897651637e+00 2.6626952112859934e+00 1.9203386610047691e+01 5 -2 2
731 1 5.8734145142586991e+00 3.3720397367554540e+00 2.1112096783124912e+01 -3 0 1
116 1 9.5369456837445554e+00 1.4878939189341676e+00 1.9697315600272727e+01 2 -2 -2
341 1 7.5158091162403782e+00 1.0059517181943591e+00 2.1021082552852679e+01 1 -2 -1
118 1 9.7312331236186758e+00 4.0913242202740516e+00 1.9044595815171082e+01 3 1 2
102 1 7.5158495973631947e+00 1.7582069140386980e-01 1.8554554142860731e+01 2 3 -5
629 2 8.8015726721467615e+00 3.2599642684446692e+00 2.1828139035857767e+01 0 0 1
330 1 9.8506421528819352e+00 7.3040250863501166e-01 2.2144506460165239e+01 -2 2 1
239 1 7.4446332937874846e+00 4.9310439414486833e+00 1.9841499871700108e+01 3 -1 -1
796 1 5.9743190119230762e+00 8.4044468902255787e+00 2.2350868775004411e+01 0 1 -1
538 2 3.2768265525703666e+00 5.7706214439311507e+00 1.8072571814519396e+01 1 -1 -1
578 2 -1.9317478815223976e-01 7.2203818575895466e+00 2.1749299904186270e+01 0 0 1
603 1 1.2356517018464306e+00 7.7401754310440936e+00 1.8614323773452856e+01 -4 0 -3
530 1 4.0919277226638000e+00 1.0036352799465130e+01 2.1382311177044677e+01 -2 1 -1
195 2 2.3210454369594671e+00 1.0268497159366726e+01 1.8380168961019894e+01 -2 1 -1
812 1 3.2511727109162076e+00 8.0987300279155079e+00 1.9927052890801303e+01 -1 3 -1
228 1 2.4145767648020133e-01 5.6330524308409693e+00 1.9210676042308201e+01 2 0 -1
251 1 2.2095219760376468e+00 5.9887837864526361e+00 2.0661325154233324e+01 2 2 0
257 1 1.5307684304271709e+00 9.5770978048758781e+00 2.1080206595477076e+01 -1 -1 -2
363 1 7.1864275423011241e+00 5.3290297979320957e+00 2.2255330708714922e+01 -2 -1 3
467 2 5.0735543116292003e+00 6.0801943822586821e+00 2.0762700466844784e+01 -1 2 1
260 1 6.6057265664693139e+00 1.0716458536010494e+01 2.0688769464847727e+01 2 0 -2
211 1 9.4667733371858986e+00 5.8470362517612013e+00 2.0988614238099299e+01 0 -1 0
303 1 8.9350671888728836e+00 6.4793157098087457e+00 1.8675266447996773e+01 0 -5 1
173 1 1.0005792525449548e+01 1.0781384843444901e+01 1.7892845261488290e+01 1 2 0
816 1 8.6045672313393347e+00 9.6156550079061294e+00 2.1420891173200303e+01 -1 -1 0
652 1 6.3558269918135508e+00 6.7336193695030531e+00 1.8466519008499382e+01 -1 2 -2
683 1 5.5651220461703046e+00 8.6736001762957891e+00 1.9923822115791623e+01 1 1 0
605 1 1.0222907428015731e+01 8.2604050722976989e+00 2.0147951654694918e+01 -3 2 -4
492 1 7.5917135254438630e+00 7.3852312393622199e+00 2.0661390326193992e+01 3 2 -2
694 2 7.9038502759623892e+00 9.1502447042711665e+00 1.8565336711434416e+01 1 2 0
540 1 2.5250154058217822e+00 1.4724150379059529e+01 1.2851960052510689e+00 -1 2 1
542 1 5.0423961346473245e-01 1.3264337071345212e+01 1.2292026390959070e+00 -3 -2 -1
392 2 3.3387143129784738e+00 1.1962236793121422e+01 4.3425389315131402e-01 -1 0 3
380 1 4.1621262868114739e+00 1.3488586987109485e+01 2.7562216569652360e+00 1 0 2
716 1 4.1972451104459196e-01 1.5051305735812241e+01 2.8725042537460248e+00 -1 -1 0
770 2 -1.7852662180871093e-01 1.5955077135388322e+01 1.1206077837248263e-01 -1 0 1
520 1 -4.7259134556558269e-01 1.2178142310624084e+01 3.5371984060200141e+00 2 1 -4
556 1 1.3756006516530155e+00 1.1208968880039885e+01 2.2560901366655957e+00 0 1 -1
771 1 3.4449497001077747e+00 1.1152880640897051e+01 3.5639139168461202e+00 -1 -3 2
628 1 8.6959236260745021e-01 1.1569478453366862e+01 -4.9565199385198244e-01 1 -3 0
76 1 2.7539923711896681e+00 1.5400320141296231e+01 3.6562800209684134e+00 -2 2 0
445 1 1.7780201095846562e+00 1.3102425865584241e+01 3.8278781464445526e+00 5 2 3
382 1 5.2212911777583750e+00 1.6032780505501343e+01 4.1374461373149130e-01 3 -3 0
218 1 5.5565273377324171e+00 1.3527678672159823e+01 6.4786906630917018e-01 1 1 2
111 1 5.5439077411673736e+00 1.1471398157760452e+01 2.2441373552829442e+00 -1 0 -1
57 2 9.6846156878878276e+00 1.5292155191456587e+01 2.5694470577688908e+00 -2 -1 -2
631 1 9.0373678059506375e+00 1.2753391296240205e+01 1.3801192178870059e+00 1 -2 3
675 1 7.7581921011918649e+00 1.4999401487871875e+01 4.8729564338452946e-01 -2 -1 3
838 2 6.9722170723759191e+00 1.3752388138060461e+01 3.0729098503419228e+00 0 1 1
620 1 1.0259867950415893e+01 1.4357609194149051e+01 -1.4188877090124352e-01 1 2 1
697 1 9.6094413037183362e+00 1.2333177364088971e+01 3.7050732811159586e+00 -2 2 2
790 1 5.9416089300584964e+00 1.0903321788440099e+01 -6.1629044074186679e-02 -1 2 -2
841 2 8.8808673425582132e+00 1.9323423651037309e+01 1.4088742109324564e+00 0 0 0
283 1 2.7590706545180961e+00 1.6699202442041081e+01 -5.3755097890312853e-02 2 -1 -1
750 1 1.1044817184689133e+00 1.8413290628378860e+01 -2.9447291301618544e-01 2 0 2
105 1 1.7993323667869605e+00 2.1646528317179531e+01 1.7669416021516049e-01 0 -3 2
349 1 1.4810967687840031e+00 1.7270715523552937e+01 2.0495921348321926e+00 1 1 0
447 2 4.3495067824266309e+00 1.7385992991107020e+01 2.5540816537585087e+00 1 -1 -2
526 1 2.6381016716129637e+00 2.1370317248359466e+01 2.5300415813800501e+00 2 1 -1
359 1 2.8382743624027280e+00 1.9317656252306080e+01 1.1880982273857257e+00 2 1 -4
88 1 4.6522506790057774e+00 1.9995209286637767e+01 2.9302304794411338e+00 -2 4 4
293 2 2.3650525227664154e-01 1.9957292780939984e+01 1.8114850730747527e+00 2 0 -2
78 2 4.8684982834081332e+00 2.1247489241309093e+01 3.2664033662370873e-01 1 1 2
462 1 4.4753700419269036e+00 1.8436478729275066e+01 -3.6136049600610148e-01 -1 -1 1
689 1 2.2468701451804338e+00 1.9070879142016771e+01 3.7101624442481214e+00 -3 -2 4
120 1 6.7926068919260194e+00 2.1140501534931389e+01 2.3003232574816770e+00 0 -1 1
106 1 9.5183873386736444e+00 1.6932253237392523e+01 2.3691607835218098e-01 0 1 4
98 1 9.0272685546827489e+00 2.2180000347521041e+01 2.0569402224555420e+00 -2 -3 -4
851 1 6.7930112744990998e+00 1.8758727694388032e+01 3.4976557982990721e+00 0 0 2
604 1 1.0101844474556547e+01 2.1281581171077178e+01 -1.4313451067740712e-01 -2 1 2
24 1 7.3258965847319342e+00 1.6885639737339634e+01 1.9434249082474002e+00 3 1 -1
180 1 6.2316836812863388e+00 1.8963324734786241e+01 1.1239495873743757e+00 0 3 0
396 1 9.0488236964274851e+00 1.7855897900053471e+01 3.8635465483479914e+00 0 4 0
670 2 3.9680279858610081e+00 1.5123966558527226e+01 7.4988771855034297e+00 2 -2 1
768 1 2.5169000898952500e+00 1.2576194119794062e+01 6.9263224954378844e+00 0 1 1
621 1 1.7884982938535372e+00 1.4760789302038615e+01 5.8025166846873466e+00 3 0 2
119 1 3.8669967558610079e+00 1.3495861220390296e+01 5.2012858181186807e+00 -2 -1 -3
736 1 1.2832426791253302e+00 1.4353301699648389e+01 8.1674082119416180e+00 -2 -1 1
289 2 -2.8795823017882655e-01 1.2923842749439540e+01 6.2852760302822688e+00 3 -1 -3
854 1 -4.1975582089397662e-01 1.5690251435373384e+01 6.9380593513104234e+00 3 2 1
572 1 5.0438971638867054e+00 1.5487622311464527e+01 4.4330124146803564e+00 2 0 -1
320 1 1.1562062945374705e+00 1.0851665484870978e+01 4.9719696787802041e+00 -1 1 0
385 1 1.0816944459313564e+01 1.9628590474162269e+01 4.1311198520442396e+00 0 -1 1
306 1 5.1481915671385066e+00 1.2687727325207064e+01 7.3500654282577162e+00 4 1 -1
495 1 1.0491969896046868e+01 1.4313365195384405e+01 6.9559873456515504e+00 -1 -1 1
607 1 8.7957627166751813e+00 1.4169753477683669e+01 5.1285252366325995e+00 3 0 0
474 1 6.4474086595076079e+00 1.4314640282172869e+01 6.0077643566576704e+00 1 -2 0
795 2 1.0337883406789254e+01 1.1607136188340315e+01 6.3830266528084163e+00 0 0 2
588 1 8.1743005104470132e+00 1.3231631911609281e+01 7.5340957106377999e+00 1 -2 -1
419 1 7.8472779493997695e+00 1.1831368512312551e+01 5.4715745277991834e+00 1 0 2
798 2 8.4251304904774571e+00 1.6242517033142786e+01 6.9582517667229213e+00 0 -1 0
766 1 5.6302995916281429e+00 1.2024799841057286e+01 4.6999248736206187e+00 3 -2 0
346 1 1.0542701714217356e+01 1.6116407728612788e+01 5.0009884627432264e+00 1 1 2
113 1 7.3446346793108326e+00 1.6260583520659278e+01 4.3908136954327759e+00 1 3 2
276 1 -4.5765119011239924e-01 1.9120073477982384e+01 4.2821047348752748e+00 -1 1 5
66 1 1.0735717369807627e+00 2.2134128443027745e+01 6.6362907091407868e+00 0 0 -1
799 1 -3.5744441212086248e-01 1.8236218942603870e+01 7.8636138266656914e+00 0 -1 2
703 1 2.7745098070417389e+00 2.0820597055355044e+01 8.1978125605273711e+00 0 2 1
782 1 1.8030559676726563e+00 1.6864854340283287e+01 7.4187402546189816e+00 -3 -1 -3
434 2 8.0275535415431976e-01 1.7000499499156785e+01 4.8177245109983371e+00 -1 -2 0
365 1 3.8505921505538545e+00 1.8561397056481130e+01 7.4117266795775265e+00 1 0 2
844 1 3.3958993256097925e+00 1.7108802989030750e+01 5.4162599531694147e+00 -1 2 1
42 2 3.3589890489568326e+00 2.1095790160758643e+01 5.2132371412413185e+00 2 -1 -1
751 1 1.4256457947098968e+00 1.9373912836168095e+01 6.5030549648381895e+00 0 -2 1
509 1 8.0377595617958497e-01 2.1154223228864272e+01 4.4005449024003402e+00 -2 -1 -2
272 1 5.0497021992935682e+00 1.8881831949494192e+01 5.2225349113243142e+00 4 1 -3
592 1 1.0464631651333320e+01 2.2133192405966685e+01 4.1858300823552677e+00 -2 0 0
427 1 7.5398871535499126e+00 1.8968777953400824e+01 5.9918982822644029e+00 1 1 0
246 1 1.0067681960185555e+01 1.8310327404982640e+01 6.0005228201878396e+00 2 0 1
203 1 5.8389826394043487e+00 1.6882750827455578e+01 6.3779358187612543e+00 4 -3 2
700 2 5.4336668261969816e+00 2.1126642680362920e+01 7.5242841686072452e+00 0 1 1
677 1 8.9157797020745377e+00 1.8651658742125658e+01 8.1678079123578051e+00 -1 -3 1
77 1 6.2693500837305205e+00 2.0988812402419537e+01 4.8522760660064623e+00 1 -1 -3
387 2 9.6544780861870674e+00 2.0883440728547260e+01 6.5361853171705846e+00 0 1 -2
21 1 6.4330846208926022e+00 1.8538558128797302e+01 8.2612961462580810e+00 1 -1 3
749 1 8.5255309180579033e+00 2.0504853109142811e+01 3.9844479005052333e+00 -1 -1 3
39 2 5.8743713437399347e-01 1.3583086651054154e+01 1.0807041761183736e+01 0 -1 2
286 1 2.6236735313744282e+00 1.5659012321286877e+01 9.8814698434137131e+00 0 1 2
822 1 3.4882152702762301e+00 1.3001142144027066e+01 1.1780965068561990e+01 0 -2 -1
541 1 3.1210680565054103e+00 1.3244779243845418e+01 9.3624890559688172e+00 -1 -1 -2
328 1 2.1823131027938500e+00 1.1279950897668117e+01 1.0928532713411098e+01 1 5 -3
472 1 2.2061753369927983e-01 1.6227822372948157e+01 9.2975440825019504e+00 2 -1 4
484 1 4.8233456366396590e+00 1.4983572351738633e+01 1.0731876945405237e+01 1 0 0
430 1 1.0733913060729638e+00 1.1831488744056209e+01 8.6486922541304150e+00 1 5 -1
381 1 4.7629938158870999e+00 1.0924264793554523e+01 1.1504331239454677e+01 -3 1 -1
539 1 6.4537793586417305e+00 2.0857551407332735e+01 1.1054030242431223e+01 -1 3 -2
288 1 1.0680006899061684e+01 1.9490657371255018e+01 1.1567644004468756e+01 2 0 2
297 2 6.0195177705808316e+00 1.3197364860365512e+01 1.2844429281668681e+01 -1 -2 0
266 1 5.4627919961943370e+00 1.2757362085176627e+01 9.9148760986486728e+00 0 -3 -3
477 1 9.6457315931683052e+00 1.5288679448802347e+01 1.1531730938556455e+01 0 0 -4
128 1 7.8885232769781712e+00 1.2599492020737141e+01 1.0066384344304176e+01 0 2 3
439 1 7.3061110182321993e+00 1.4879353577029653e+01 1.1084956286221379e+01 1 2 1
298 1 9.2756464372790983e+00 1.4892858721711434e+01 9.1659277911421349e+00 1 3 -1
544 1 8.8780752117469337e+00 1.3016655651650197e+01 1.2372384540986145e+01 1 -3 4
261 1 1.0103403275582979e+01 1.2620394501677630e+01 8.9577369864007057e+00 2 -4 0
53 1 5.8055438308058687e+00 1.6157139619056448e+01 1.2830981258015585e+01 -2 3 3
28 1 7.2416195560262668e+00 1.0912914948958781e+01 1.1923612619570759e+01 0 -1 -3
294 1 6.5496926469291274e+00 1.4780989724655390e+01 8.6768078894534284e+00 -1 1 -1
828 1 1.1455276234260361e+00 1.6552174411280745e+01 1.1606659566274427e+01 1 4 1
536 1 3.3973499515407557e-01 2.0473612827717346e+01 8.7076704025740312e+00 0 -2 -2
154 1 4.5394491120495095e+00 1.9769757798542305e+01 9.7120590627467323e+00 0 -1 -2
71 1 3.7742067957363687e+00 1.7157258316237019e+01 1.1616153545903506e+01 1 -2 1
667 1 3.8507838859174610e+00 1.9517269273409894e+01 1.2038132206276538e+01 -1 -2 -5
200 1 8.9912087849471800e-01 1.9099514269756234e+01 1.2102480732762848e+01 5 -1 -2
523 2 2.0774983997816547e+00 1.8449669709530262e+01 9.6241783396167193e+00 2 -2 0
552 1 2.1897461448742619e+00 2.0974544925148656e+01 1.0704673991726063e+01 0 -2 -2
230 1 4.6978969563039330e+00 1.7125145695562917e+01 9.3225516199326304e+00 4 1 2
158 1 4.9102261187923766e+00 2.1535686396546804e+01 1.3011233977816676e+01 3 -3 0
858 2 -6.6995345138271967e-01 2.1231235130510232e+01 1.1055574488389951e+01 -1 0 1
133 1 6.0239354468911017e+00 1.8315468727697407e+01 1.1113242669884688e+01 -1 2 2
401 1 8.3376567019237129e+00 1.9212764272111023e+01 1.0528628122512156e+01 1 3 -3
307 1 7.7189017528082875e+00 1.6872589138852483e+01 9.6707818804006322e+00 2 -2 -1
671 1 8.7811493858655414e+00 1.9782109108427321e+01 1.2861795920162418e+01 4 -3 2
706 2 1.0525775643402030e+01 1.7401434097300605e+01 1.0019519296335977e+01 1 2 1
448 1 1.0697411116308128e+01 1.7217200516342825e+01 1.2883804889325521e+01 2 -5 -1
744 2 8.9823656054189875e+00 2.2035416641078712e+01 1.1102145896277079e+01 2 -5 0
624 1 7.8326557531762901e+00 2.0790072442200305e+01 8.7011565506070117e+00 0 -3 -1
240 1 8.1606967035087408e+00 1.7263085245036951e+01 1.2167097690862308e+01 2 -1 0
50 1 1.0244591222933295e+01 2.0450043188398588e+01 9.3189912061793692e+00 -1 -2 3
18 1 3.6719693901304371e+00 1.2603603450321843e+01 1.4394111100248073e+01 2 0 -1
417 1 2.8600354704622819e+00 1.5671150365112961e+01 1.5935956722453493e+01 0 1 -3
302 1 1.4141930362160164e+00 1.3791686488970402e+01 1.5205279457711290e+01 3 0 4
7 2 3.2483291642254417e+00 1.3235681620630285e+01 1.7172635183430401e+01 -2 0 1
17 1 1.7407346492437483e+00 1.1411969604045600e+01 1.5657352094457931e+01 -1 -2 -1
436 1 5.6355182030351680e-01 1.2365647802193628e+01 1.7549119691780987e+01 3 2 4
146 1 6.7510921458511319e-01 1.6278570008737923e+01 1.5156470054798477e+01 1 -2 0
855 2 4.9650093635534018e+00 1.6387775231269611e+01 1.7393011327576641e+01 -1 -1 2
179 1 1.3907738244465033e+00 1.2341208686077593e+01 1.3227365556532055e+01 0 0 0
182 1 1.9194497852567205e-01 1.4636421171754716e+01 1.3247034641871876e+01 0 -3 -1
532 1 6.9797484809124843e-01 1.4795945314342456e+01 1.7267884937277234e+01 0 -1 2
170 1 5.1005703692585094e+00 1.4706787990588101e+01 1.5102071958114241e+01 1 -2 -2
112 1 8.0616524314434095e+00 1.5204576314059716e+01 1.3560242778360296e+01 3 -5 -3
860 1 5.7486286510264462e+00 1.2343114372006498e+01 1.5757827792043916e+01 0 3 2
318 1 7.7180601629088965e+00 1.3944922717567749e+01 1.5706148606930267e+01 2 -3 0
168 1 9.9631822496287725e+00 1.2593258630778784e+01 1.6035529558583004e+01 1 -1 -1
97 1 9.2443683263791545e+00 1.5877023059287161e+01 1.5848601444234124e+01 2 0 0
75 2 8.0848695305797218e+00 1.1457048626794000e+01 1.4511271299833270e+01 0 -3 -1