LAMMPS data file via write_data, version 3 Mar 2020, timestep = 1799500

4000 atoms
2 atom types

-1.2425954334541274e+00 3.7342595433443535e+01 xlo xhi
-1.2425954334541274e+00 3.7342595433443535e+01 ylo yhi
-1.2425954334541274e+00 3.7342595433443535e+01 zlo zhi

Masses

1 63.546
2 91.224

Atoms # atomic

2512 1 1.4263788371214949e+00 4.7212045705144523e-01 5.9671036379261544e-01 1 0 -1
810 1 1.8099994511973305e+00 1.0421556287984108e+00 3.0577903664080885e+00 -1 1 0
1508 1 -3.9207028289888124e-01 -5.7769393526683366e-01 2.1112298097654048e+00 1 0 1
3448 2 -2.1168395403609885e-01 2.4417580374361689e+00 1.9625757318725601e+00 0 1 1
3317 2 2.9633737414765307e+00 2.5401835791416527e+00 9.2343215686781299e-01 0 0 1
1975 1 7.5088507709572272e-01 2.5700239989222569e+00 -9.3277321761227117e-01 3 2 0
1203 1 3.9907912936284866e+00 2.5722831540215019e-01 -4.9383963015194499e-01 1 1 0
838 1 4.0331292911724717e+00 4.0421175711905799e-01 2.1489021315385046e+00 1 2 2
3971 2 6.3607428121828704e+00 -5.0399041870268657e-01 1.1229265218918654e+00 1 -1 1
3151 1 6.2132738224225994e+00 2.1254393460971333e+00 2.4083487633149958e+00 -1 1 -1
879 1 5.5099138786408384e+00 2.2155605081011505e+00 9.9584297305955971e-02 1 1 1
1739 1 7.9987866124352429e+00 1.5831265245771378e+00 3.1248362170413002e-01 -1 -1 -1
3297 2 8.6398932502606431e+00 9.6507524705885528e-01 2.9504683333303499e+00 0 0 -1
1627 1 1.0914440005325474e+01 7.7495871916924752e-01 1.2004700602458165e+00 0 1 -1
2012 1 1.2482012592785892e+01 -1.9020212666684855e-01 -6.7755280349011893e-01 1 2 1
2505 1 1.0664087095404264e+01 -9.2801124409384284e-01 3.1228558460411993e+00 -1 2 0
870 1 1.1924655577261609e+01 2.2690470441978681e+00 -6.4646611847169522e-01 0 2 0
2486 1 1.2491085301859645e+01 2.7526643698894828e+00 1.8431154750937697e+00 0 -1 0
1876 1 9.1672788748504281e+00 -1.1097422691574641e+00 9.8329813555817891e-01 1 1 -1
2550 1 9.9815173253031375e+00 8.2080905459377540e-01 -1.1786619400935587e+00 -1 1 1
3539 2 1.3428978554687424e+01 -1.3490252364967459e-01 2.0349608550060037e+00 0 0 0
1983 1 1.4968760915800090e+01 2.3028738463024094e+00 1.4672543722748776e+00 0 -1 2
3242 2 1.7335463383076625e+01 2.0962343106534900e+00 2.8915204252812234e+00 -1 -1 1
381 1 1.6284206247580101e+01 3.9183760158175751e-01 8.0129064541035211e-01 -1 -1 -1
1108 1 1.4327573256552427e+01 1.4032608097477564e+00 -7.1816805756153990e-01 0 -1 1
3454 2 1.7062443815159536e+01 2.6128208363289995e+00 -7.6353235620214965e-01 0 0 1
2358 1 1.7960415406117093e+01 -4.8879576179478379e-01 2.4069077901946501e+00 2 1 0
589 1 -1.2252044955620676e+00 7.1401070536547593e+00 4.3703746588001158e+00 -1 0 0
1321 1 1.3271365155066728e+00 4.6651056697785309e+00 6.3830616532046069e-01 1 -1 1
992 1 2.1846438828773809e+00 6.8738107998741533e+00 -2.8011685017478172e-01 -1 1 2
3420 2 2.8849440010417684e+00 6.2879108858624795e+00 2.2374487681067921e+00 1 1 1
1450 1 2.0302965797957255e+00 3.6673040230567686e+00 3.0739596625083641e+00 0 1 1
2324 1 1.9821580160780394e-01 6.7949893731605577e+00 1.2232069369808469e+00 1 0 0
2162 1 -9.6160493576188899e-01 4.5110065902872094e+00 -2.1728036824583419e-01 2 1 0
1575 1 5.0298401255580183e-01 5.5172817505889471e+00 3.4497246511721738e+00 0 0 0
373 1 4.7121302029436594e+00 4.4145172450079873e+00 -5.6546350272132684e-01 -1 -1 1
3480 2 7.3723888358178247e+00 4.3273969900713052e+00 1.1974691659763339e+00 1 -1 1
3100 1 5.4190652077305712e+00 6.2228884874958155e+00 9.8730137080847058e-01 1 0 0
1195 1 4.6292821151905690e+00 4.1952865823073777e+00 2.1228785776277355e+00 -1 0 2
908 1 4.3906001124803655e+00 6.8658148004092023e+00 -1.1247497953393639e+00 0 3 1
2176 1 7.7416826273503734e+00 7.2655017406888582e+00 1.2668617493204994e+00 1 1 0
3247 2 5.9173635326749423e+00 7.2635175723874568e+00 3.4629861437085481e+00 -1 0 0
2229 1 1.0064343987746556e+01 3.1859368770418746e+00 1.6410296864809188e+00 1 1 0
664 1 9.4167563248097359e+00 3.2544849215041074e+00 -7.4780594473370998e-01 0 0 2
259 1 1.1484371990738463e+01 5.3875558796842062e+00 1.2860483923038450e+00 -1 0 0
1184 1 9.3882643713681873e+00 5.7334987438260256e+00 2.4049194242117253e+00 -1 1 1
217 1 9.4782481458359520e+00 5.8723493772222648e+00 -1.8142166481721089e-01 1 -1 -1
603 1 1.2056883999534556e+01 6.9153935989325781e+00 -8.0444738659158976e-01 -1 1 0
1522 1 1.1441857258250725e+01 7.0682769356200126e+00 3.1726815596653921e+00 1 2 0
1579 1 1.3435735366339994e+01 5.5191826770219050e+00 3.0034808516124949e+00 1 1 1
3415 2 1.3736269661001208e+01 4.5669834752338048e+00 1.9891292826670148e-01 -1 2 0
1408 1 1.6063210566976526e+01 6.5415781580837704e+00 2.5594861695235207e+00 1 1 1
668 1 1.6508369511358126e+01 4.5344670220188918e+00 1.1343745063351083e+00 0 1 2
2723 1 1.5259519293450879e+01 4.0100875926006534e+00 3.1913354493570933e+00 1 -2 1
260 1 1.5473783017180256e+01 6.6977463235691275e+00 1.0031754133850335e-01 0 2 1
1194 1 1.7442299189478209e+01 5.9114330400496593e+00 -1.0992665923009550e+00 -1 0 1
727 1 3.1821485935374403e+00 9.0456914956449275e+00 -1.1374931644254080e+00 0 0 1
2561 1 -7.6684041483016296e-01 1.0474986066425064e+01 1.5001854043512268e+00 1 0 0
550 1 1.5068812505651743e+00 1.1068496313376752e+01 2.4835036480875456e+00 -2 1 0
246 1 2.2061733654862072e+00 8.8250333698005896e+00 1.2910688265341568e+00 -1 1 1
3275 2 3.5866624202705388e-01 8.9403830420975900e+00 -4.8843656853650042e-01 1 1 0
1771 1 2.7665598586572768e+00 1.1001149534041796e+01 3.5037599834283073e-01 1 1 1
3873 2 5.3842796370436807e-01 8.6479486052079082e+00 3.2761597506435001e+00 0 0 0
103 1 3.3488514858379164e+00 8.9310458202414011e+00 3.4790762078192872e+00 -1 -1 -2
191 1 4.0907985525317248e+00 1.1286598978241814e+01 2.4388346917882813e+00 1 1 1
3530 2 4.9324180136087739e+00 8.8781182014236713e+00 1.0748253286027105e+00 -1 1 0
1002 1 7.7550453871089822e+00 9.4048570044121558e+00 -8.8618776280087408e-02 0 -2 0
3073 1 7.4101031554742356e+00 9.6461602178972097e+00 2.3418037307055295e+00 0 0 0
1360 1 5.9550939794193818e+00 1.1172724640141562e+01 4.0660915563026889e-01 -1 1 1
2854 1 9.9571857841123350e+00 1.0747237425185713e+01 -8.8565835220124600e-01 1 1 0
3271 2 1.0372533812121988e+01 8.4793195694495402e+00 1.0274723065770215e+00 1 1 1
39 1 1.2333623615767850e+01 9.6467076661071296e+00 2.5419305550567617e+00 0 0 0
1779 1 9.8404650200709831e+00 1.0307685926911262e+01 3.1376378822430686e+00 1 0 1
594 1 9.0359254184802165e+00 7.9592759943074594e+00 3.3283554887815683e+00 1 2 -2
1383 1 1.3163801897394878e+01 7.3138109482443667e+00 1.3446039090784461e+00 0 -2 0
611 1 1.3238691715857442e+01 1.0605848654838779e+01 2.6220742010404807e-01 0 0 -1
291 1 1.7682278836615506e+01 8.5357545900445793e+00 2.8304052356858271e+00 0 0 1
3911 2 1.5145172101615632e+01 9.1601124837996171e+00 1.9054791713416117e+00 0 0 1
1166 1 1.7535256784153354e+01 8.1025387983687569e+00 4.5473426047158472e-01 2 1 -1
1743 1 1.6293079081626420e+01 1.0040192139843828e+01 -5.2128329016727604e-01 -2 2 1
496 1 1.7644165716178232e+01 1.0513150622594212e+01 1.5472442573857697e+00 -1 0 1
811 1 1.4029494609614597e+01 8.4513759930596581e+00 -6.8882630825220337e-01 -1 2 -1
104 1 4.9584041077740904e-01 -6.7476285263035785e-01 4.4323453261648460e+00 -1 -1 0
3586 2 1.1989033859008229e+00 1.6945979134415694e+00 5.6428733676623759e+00 0 0 0
2883 1 7.4076592057675050e-01 -8.3271641207131331e-01 6.8847837126332116e+00 -1 0 1
956 1 3.3606409458557565e+00 -4.0254651256007778e-01 4.6973200197343337e+00 0 1 0
3617 2 3.2624419820470809e+00 -2.9784511796968327e-01 7.8896443229172117e+00 0 -2 0
1816 1 8.7774854706188377e-01 1.2697139234952011e+00 8.3132818735472380e+00 1 1 0
1905 1 3.5832295537697245e+00 2.4620772545139369e+00 7.0093760578547375e+00 -2 1 0
362 1 6.0241454250913735e+00 9.9879921806195870e-02 3.9064285018363121e+00 -1 0 1
2339 1 6.6465601993743846e+00 -5.4041935087776982e-01 7.8685344869154203e+00 -2 3 1
631 1 5.2757524826870119e+00 7.7686577871813123e-01 6.2239053504951132e+00 -2 2 1
1973 1 7.7871471551314038e+00 2.5188148615312933e-01 5.7834996786565016e+00 0 0 -1
599 1 6.9126919604467609e+00 2.3112109886213923e+00 4.8589579336493136e+00 -1 0 1
3647 2 4.1454506134309073e+00 2.3520206478390637e+00 4.2355132713371306e+00 1 1 1
3900 2 7.2907873328277102e+00 2.4436111508246698e+00 7.5750013718856142e+00 1 1 1
434 1 1.1415615509977751e+01 1.3763448246836743e+00 3.6445264561795501e+00 0 1 0
1863 1 9.4766321083826117e+00 2.0939760938135930e+00 5.2483274298860172e+00 -1 -1 0
2040 1 1.2070854241877004e+01 2.1490522955428042e+00 5.9476622453612338e+00 1 0 1
3455 2 1.0646167205561028e+01 -2.8471837244412679e-01 5.8942862342091642e+00 0 1 1
1844 1 1.0142636607848466e+01 2.6464829412303348e+00 7.4179480817103514e+00 0 1 1
2769 1 9.0590774711394921e+00 4.3230252358824850e-01 8.0927148343363147e+00 1 1 1
2263 1 1.2967869198403541e+01 -8.3545896043119550e-01 7.3516342705113775e+00 3 1 0
1313 1 1.3179666777908611e+01 -3.2462784565830294e-01 4.7690663357560137e+00 2 0 1
1530 1 1.5607407398978467e+01 7.4911465735153726e-02 3.8426562581149959e+00 0 0 1
2238 1 1.3870251224591645e+01 2.0358035838553001e+00 3.8744897772543485e+00 0 1 1
1499 1 1.7292527169194376e+01 2.5718535202882880e+00 7.5705250574369511e+00 -1 1 0
2817 1 1.7133774521265938e+01 7.3546686648852000e-01 5.7506474564526515e+00 0 2 1
3666 2 1.4633302368085850e+01 1.4458240866990208e+00 6.5846449466895356e+00 0 0 0
2665 1 1.5183360152656128e+01 -1.1813675162559223e+00 6.1016497759256589e+00 -1 1 1
26 1 1.6391465047302592e+01 3.5656772897215516e-01 8.3658087609386289e+00 -1 -1 1
711 1 -6.9668737375396972e-01 3.1158943936422387e+00 7.1298476735594356e+00 1 0 1
3885 2 -6.6778492560612968e-02 5.6694696300616023e+00 6.2993678683644836e+00 2 0 1
494 1 1.5566275111512069e+00 3.6991056601782031e+00 7.7929898446038468e+00 1 0 1
1924 1 2.0247834025550135e+00 4.2639896701725917e+00 5.4067433300408023e+00 -1 0 0
1147 1 -6.2924044421058989e-01 3.4662801528776575e+00 4.5502908628658645e+00 -1 -1 2
615 1 2.1033572338992426e+00 6.8903579529598638e+00 4.9151382305373890e+00 2 0 0
3555 2 3.4958312482076703e+00 5.6681445848291681e+00 7.2892093953281218e+00 1 1 1
1745 1 6.2195499533871965e+00 4.4670048852957240e+00 3.9016350700460105e+00 1 -1 0
1770 1 4.0410633126696585e+00 5.2999641276746896e+00 4.5266734577792498e+00 -1 0 1
2740 1 5.4552128876487087e+00 3.9274369619676968e+00 6.2290847307104835e+00 1 1 1
2680 1 5.9379007166974258e+00 6.3057102887679459e+00 6.0078156720787996e+00 1 -1 1
170 1 8.0333993136049404e+00 6.0793851156572396e+00 4.5253556659775889e+00 0 2 0
141 1 6.3768026781423410e+00 5.5009903365506183e+00 8.2875838404360014e+00 -1 -1 -1
10 1 8.4981862528028032e+00 3.6921253098720417e+00 3.6043802092480925e+00 0 -1 0
3964 2 8.4172889465045380e+00 7.2065250353705412e+00 7.2742554240794401e+00 1 0 0
3142 1 8.8204350019077307e+00 4.3796425230126426e+00 6.0273640774928250e+00 1 0 -1
3511 2 1.1172523239510584e+01 4.1959422769605368e+00 4.0528800127657840e+00 0 1 1
3427 2 1.1167730925064042e+01 5.0184698139986672e+00 7.3448791543427721e+00 -1 1 0
1249 1 1.2575705088411583e+01 6.2531562251734503e+00 5.3042570177718265e+00 0 1 2
2143 1 1.0215374939471145e+01 6.6868089279976530e+00 5.3052235046311926e+00 0 0 1
1151 1 1.7650747038004422e+01 4.6282517856299892e+00 3.6421567736490958e+00 1 0 2
2265 1 1.3277577680595099e+01 3.4492841172216160e+00 7.8881608816685720e+00 1 0 -1
2170 1 1.6350458328992161e+01 3.1752127400922276e+00 5.2912803016914483e+00 -2 1 1
1656 1 1.3715233896421548e+01 5.9040929162734370e+00 7.5076533054383923e+00 0 -1 0
1658 1 1.3666596420550531e+01 3.9703675726620036e+00 5.5100539785916229e+00 0 1 -1
353 1 1.5574992557175587e+01 4.3017443087419851e+00 7.4283177519192964e+00 -1 0 0
3462 2 1.5441405306188457e+01 5.9598075582515353e+00 5.1420519413677734e+00 0 1 0
2731 1 1.7868064578589205e+01 5.2441586096123665e+00 6.2929714025897132e+00 -2 1 -1
1998 1 1.7934218393744359e+01 6.8977419120256300e+00 4.3999551649627202e+00 0 0 0
2548 1 1.7732995742038280e+01 9.9276210292535740e+00 5.6346801697195472e+00 0 0 1
2767 1 1.4444952349054687e+00 7.6343722014903239e+00 7.3082528339469377e+00 2 1 0
3047 1 1.4453246203734493e+00 1.1134235530312878e+01 7.0781962748152552e+00 2 2 0
1133 1 3.5477490227193087e-01 1.1179560500757001e+01 4.7614655791508165e+00 -1 0 0
2836 1 2.0005378748602660e+00 9.2964802135618019e+00 5.5604260278082904e+00 0 1 -1
2388 1 3.1657852592965599e+00 9.2930004209102322e+00 7.7504558127268215e+00 1 1 -1
3969 2 -6.4654491694902239e-01 9.1686320475437899e+00 6.2938087607152866e+00 2 2 0
3014 1 -1.0484940313853675e+00 1.1007447423760556e+01 8.2686908064627094e+00 -1 0 1
2418 1 5.4555864653320585e+00 1.0048272818462941e+01 4.1007920606040642e+00 0 1 -1
913 1 7.7493681189986781e+00 1.0825719086569482e+01 4.5290768344395795e+00 1 1 1
2581 1 4.2330793547114194e+00 8.1658468804707969e+00 5.6983856018513226e+00 0 0 0
3941 2 7.8321001429979873e+00 1.0659608609611237e+01 7.3147166222763893e+00 0 0 0
1124 1 6.6248268109259723e+00 8.6730913924373088e+00 5.7971127621201015e+00 -1 0 0
2787 1 5.0969211641395580e+00 1.0411170230638959e+01 6.8193729523310367e+00 1 3 0
116 1 9.0194729943967591e+00 8.9819915994058217e+00 5.4442943666104071e+00 1 0 2
3756 2 1.1604485517435013e+01 9.1475849264544973e+00 5.1709880368642311e+00 0 0 0
2681 1 1.0344417118594700e+01 9.7940620022722253e+00 7.5945242181850983e+00 1 1 -2
2032 1 1.1670367201191874e+01 7.6270532576620589e+00 7.5007667494578527e+00 0 1 0
21 1 9.8988477458511372e+00 1.1352042836221601e+01 5.4922081041343285e+00 -1 0 2
2007 1 1.2787700158181284e+01 9.8864987372339463e+00 7.7150779375534508e+00 -1 0 1
1748 1 1.6226281432653646e+01 1.1246198534111933e+01 3.9473500432577309e+00 0 2 0
3256 2 1.5449341421176292e+01 9.9488595927188914e+00 7.1752038882110831e+00 -1 1 1
1479 1 1.8003751028779753e+01 9.4872805868105825e+00 8.0094124465384802e+00 0 -1 0
3098 1 1.3747687318457901e+01 7.8342881660902854e+00 3.7561421351967033e+00 0 0 1
708 1 1.6906239714044517e+01 7.6564714105545235e+00 6.7362977356829692e+00 0 0 1
1106 1 1.3993392108808116e+01 1.0214260297575132e+01 4.6660257552973734e+00 -1 0 1
926 1 1.3983489852487706e+01 8.0479612693268923e+00 6.2391654603265065e+00 2 1 1
1529 1 1.5932745736932226e+01 8.6450670631272111e+00 4.5655797306381460e+00 -2 3 2
1388 1 8.4727426200994866e+00 1.1597956483934789e+01 9.0213022090180717e-01 -1 1 0
2516 1 1.3832975335081750e+01 1.1602864763850366e+01 2.6866676717612390e+00 1 1 0
3074 1 1.1369453695198594e+01 4.6471659498845801e+00 -1.2124739516431973e+00 1 1 1
3054 1 1.3367697160457648e+00 9.9508821969987471e-01 1.0823346764223796e+01 0 0 1
1582 1 4.1135491661621737e-01 2.1868646269957641e+00 1.2747078999615001e+01 -2 1 0
1059 1 2.8681054230472443e+00 2.2987010034689304e+00 9.4244059316999831e+00 0 0 1
1054 1 -5.0624980353211757e-01 2.4392149915697381e-02 1.2296033339000939e+01 1 0 3
1570 1 9.0140313756839685e-01 -1.0384058695357619e+00 9.2988107614393911e+00 -1 2 2
1603 1 -1.0084166325526782e+00 5.0280890635441366e-01 9.8938440898548077e+00 3 1 -1
837 1 3.6677686830857139e+00 2.4571229169566489e-01 1.0684268406466320e+01 1 -1 1
1397 1 7.2860730576390882e+00 9.6672333498897833e-01 1.0009976195798247e+01 1 2 -1
3527 2 8.1118334547018396e+00 2.3331555578695613e+00 1.2169963920259617e+01 -1 -1 1
2981 1 5.7621081459392531e+00 5.2035202663707425e-01 1.2309027053328139e+01 1 -2 1
2337 1 5.1529610097451721e+00 1.2459854777074635e+00 8.9023142746850557e+00 1 0 0
2782 1 7.9768747407819145e+00 -7.7810448223101214e-01 1.1955206911172420e+01 1 0 1
3968 2 4.8983892229396817e+00 2.8730480287173554e+00 1.1312428298767644e+01 2 1 0
3010 1 9.6514661347358768e+00 3.4127577270889975e-01 1.0524909886979101e+01 1 1 0
845 1 9.2435164341485958e+00 2.5626239786995115e+00 9.6269742045798932e+00 0 -1 -1
221 1 1.0857619059201429e+01 2.2042386504006761e+00 1.1495144242852080e+01 0 0 0
555 1 1.2171154864523764e+01 -1.0368002092381889e-01 1.1249836140701152e+01 1 1 1
3237 2 1.1963794946162070e+01 1.3608646561668754e+00 8.9328697466657747e+00 0 1 0
2350 1 9.9196649688985250e+00 3.8612998257693931e-01 1.2959019215385817e+01 1 -2 0
918 1 1.1016542219418991e+01 -1.0184757041706543e+00 9.0432407968634436e+00 0 0 0
2148 1 1.3423787855717302e+01 2.3343660174091605e+00 1.1297893066342885e+01 0 0 1
1536 1 1.5804690651501879e+01 6.6906542000405000e-01 1.0829858141476448e+01 0 0 1
1486 1 1.4143290448055399e+01 -4.0602538838134417e-01 9.4585795860179527e+00 0 1 1
1803 1 1.5161937986025279e+01 2.3685976268398181e+00 9.2174953311594834e+00 1 -1 0
3854 2 1.7682113884285805e+01 1.6363716838258235e-01 1.2845256490551336e+01 2 1 0
2786 1 1.7702517028535663e+01 -8.3793911912611652e-01 1.0183272577016512e+01 1 0 0
3706 2 1.4468222759807500e+01 2.8878245811210967e-01 1.3146745685534803e+01 2 1 1
1223 1 2.3441644691618206e+00 3.2169866793380564e+00 1.1844244712256842e+01 1 0 -1
35 1 2.8772024006789847e+00 4.7281501872175529e+00 9.9177083220215803e+00 0 1 0
1050 1 1.2855603047899842e+00 5.5404832495781209e+00 1.1572764190387584e+01 -1 0 -1
3438 2 7.5957502774484098e-03 3.3684174083390888e+00 1.0082648843127689e+01 0 1 -1
60 1 8.2654235160125511e-01 5.7972285186110790e+00 9.0281802430853908e+00 1 -1 0
1956 1 -1.0263799265240037e+00 4.3305036225873801e+00 1.2472153673624529e+01 0 1 0
829 1 -1.0908393153845055e+00 6.1851269483767712e+00 1.0693176560203252e+01 2 2 1
1859 1 -4.4142343068503420e-01 6.5980109418602622e+00 1.3138531861296572e+01 1 1 1
1888 1 3.5388141652011740e+00 7.3125743864795378e+00 1.1542990322871516e+01 0 2 0
316 1 2.7042937688339710e+00 7.3359333056323095e+00 9.3333363756253878e+00 0 0 1
37 1 3.7086477641089282e+00 5.1442091302157609e+00 1.2763075215791366e+01 1 0 -1
1191 1 7.0576304746870964e+00 3.8877071193537507e+00 1.0135611629561659e+01 1 1 1
2368 1 6.5089037973442538e+00 4.7789603176076740e+00 1.2592835007038357e+01 1 0 0
2080 1 5.1360580190354712e+00 5.7082111889822871e+00 1.0468905724157000e+01 0 2 0
3458 2 7.7587658713665455e+00 6.5691120046871427e+00 1.1000330854888306e+01 0 0 0
2544 1 4.9053371197183679e+00 3.6820143268995773e+00 8.7190443936525366e+00 1 2 -1
247 1 9.7073355355803770e+00 4.6609613694042835e+00 1.0739115499789435e+01 0 0 0
972 1 1.1813549629857862e+01 3.8342193610275901e+00 9.8674849106678870e+00 1 -1 0
2425 1 1.2235242794775457e+01 6.3315220550536591e+00 9.8023752022498520e+00 -1 0 0
1899 1 1.0627802333320048e+01 6.7889521286595667e+00 1.1744118817852497e+01 -1 0 0
3262 2 1.1874014003091940e+01 4.4167694220624707e+00 1.2691448757198513e+01 0 2 2
1519 1 9.9148157210416059e+00 6.9208254740393471e+00 9.3639459809176415e+00 -1 0 -1
1677 1 8.7242017379221704e+00 4.7863063058426674e+00 8.5065734191965774e+00 1 0 1
2598 1 9.0903579460866446e+00 4.9984098559685917e+00 1.3060397283974881e+01 1 0 0
1527 1 1.2685824572442669e+01 7.0081533941325542e+00 1.3185463034288979e+01 -1 0 0
3302 2 1.6122153633990322e+01 3.1697695755233086e+00 1.1932124597859746e+01 -2 0 1
2352 1 1.6917732731622092e+01 4.3044008896618671e+00 9.5873964369162188e+00 0 0 -1
3521 2 1.4315405279838187e+01 4.8386837483783482e+00 1.0110601710676878e+01 -1 0 0
1510 1 1.6450854661181818e+01 5.9547055458845621e+00 1.1505561146976495e+01 0 1 0
750 1 1.4517746392502048e+01 5.3379601546525928e+00 1.2927461589486210e+01 0 0 0
2138 1 1.5854123820149741e+01 6.5253994533934785e+00 8.6618412453599838e+00 0 0 0
1170 1 -3.5063696292698310e-01 1.0741692857781608e+01 1.0706773617673612e+01 -1 1 0
3819 2 8.4141931581883611e-01 8.2695224276223627e+00 1.1335900075959250e+01 0 0 0
261 1 2.1866177976715084e+00 1.1078495050626282e+01 1.1198734218987347e+01 0 0 0
770 1 1.0755405990127893e+00 9.5783241104235781e+00 8.9529878736355535e+00 0 0 -1
1369 1 5.3799951677843172e-01 1.0807671054286141e+01 1.2980760688980626e+01 2 0 2
1459 1 -8.2359989433167180e-01 7.4906252674588245e+00 8.5265641865555342e+00 1 -1 1
702 1 3.6499340080930942e+00 9.3894120635526548e+00 1.0212767512351531e+01 0 1 2
3041 1 2.6716982680815939e+00 9.3228322666996153e+00 1.3241167946871267e+01 1 0 1
1395 1 5.9654886596716468e+00 8.9116201689310195e+00 1.1199723822557846e+01 1 1 0
1581 1 6.1134421075100880e+00 1.0648405556637785e+01 9.3803303256872557e+00 1 0 0
1659 1 4.7806990189713714e+00 1.1199082270001117e+01 1.1418693137073330e+01 0 0 3
1782 1 8.0325256154315596e+00 8.9542169417710049e+00 9.5965136696254056e+00 0 0 -2
3208 2 7.7315384345457119e+00 1.1385764222553961e+01 1.1682039337612593e+01 0 0 0
2823 1 7.5630846692509923e+00 8.6836470312298424e+00 1.3095994668975070e+01 0 0 -2
3978 2 5.5573723250402809e+00 8.0952471424120134e+00 8.4620036832743555e+00 1 1 0
1561 1 1.0709622253666437e+01 1.1205692716829841e+01 1.1912496585389720e+01 0 1 1
1808 1 9.5855655827557857e+00 1.0864438058346794e+01 9.6929145837613717e+00 0 -1 -1
489 1 9.4443570912929822e+00 9.0234920970240324e+00 1.1675343045969093e+01 1 0 1
3865 2 1.1652275227373382e+01 9.0154491963171655e+00 1.0159222701681671e+01 1 -1 0
442 1 1.1659049716839911e+01 9.1759309556727597e+00 1.3030820886796620e+01 1 2 0
2941 1 1.3234563534065906e+01 1.0948714426551359e+01 1.2013741305396739e+01 1 -1 1
2084 1 1.7334577683705465e+01 8.3622403953128011e+00 1.2011960228532063e+01 1 1 0
3746 2 1.4428278324474473e+01 7.9399816140053243e+00 1.1458242001297743e+01 -1 1 1
164 1 1.4180834521934807e+01 1.0342445716801581e+01 9.8084704261883378e+00 0 0 -2
1877 1 1.6240026231714502e+01 8.9267572426477635e+00 9.7278273909832009e+00 1 -1 1
3771 2 1.6014737026794958e+01 1.0895271065398598e+01 1.2055962441844699e+01 1 0 0
1744 1 1.3917161090119347e+01 8.0094696148433293e+00 8.8259687381728593e+00 1 -1 0
277 1 1.6356493120498410e+01 1.1445338969410631e+01 9.1601351237296083e+00 -2 -1 -2
3413 2 2.8893355804974341e+00 7.7998610982371108e-01 1.3346204339299943e+01 1 1 0
1929 1 2.4025921770106238e+00 -3.6551284606920020e-01 1.5829882870563701e+01 0 -2 -2
422 1 1.3831187787756307e+00 1.9887884048853874e+00 1.5252799100942330e+01 -1 0 2
1390 1 3.1963532289966601e-01 -6.4486180859735232e-02 1.4566661844573483e+01 0 0 -1
3204 2 1.1231134570846439e+00 1.2591168503369339e+00 1.7928984216674252e+01 0 -1 0
1257 1 8.2388675615228113e-02 -1.1242471789688790e+00 1.6811023093679271e+01 0 0 -2
2756 1 7.2961778953902527e+00 -1.2335922674628503e+00 1.5704558988079910e+01 0 0 2
1013 1 3.7280167110772808e+00 1.6316928630668910e+00 1.6345495947470553e+01 0 -1 -2
1740 1 8.0915617975722700e+00 9.8546668377197388e-01 1.7322257468616741e+01 2 1 0
1835 1 5.3427778686335010e+00 3.1665017616880453e-01 1.4775068352059971e+01 0 1 0
2733 1 6.1863913563716242e+00 1.9951899899309877e+00 1.6258174099504469e+01 1 0 -1
1161 1 7.8759622089178229e+00 9.7900834524784397e-01 1.4598065024912723e+01 1 0 -1
1865 1 5.9127567790750550e+00 2.5269942563004548e+00 1.3857156709235353e+01 1 0 2
3368 2 5.3461898111483261e+00 -5.3128020797387643e-01 1.7546344965731020e+01 0 1 -1
2844 1 1.2121533926298499e+01 1.3936166206863274e+00 1.3432777278585888e+01 0 0 1
3973 2 1.0436537793821644e+01 3.4208831796928152e-01 1.5676285309338084e+01 1 1 1
1778 1 1.0044114835829035e+01 2.6688471697585534e+00 1.4020849974821836e+01 -1 2 0
1216 1 1.2322542467435634e+01 1.3468147230111116e+00 1.7303813179049317e+01 -2 1 1
2407 1 1.0007469221668330e+01 2.7365421136600903e+00 1.6862884436296373e+01 -1 0 1
1937 1 1.2192693944939611e+01 2.9146218009249365e+00 1.5349542977111444e+01 -1 0 0
1362 1 1.1827563963668648e+01 -1.1157642242602470e+00 1.3655581930593261e+01 -1 -1 0
2469 1 1.3095949529140968e+01 -7.1938587349783256e-01 1.5699907890889623e+01 0 -1 1
1943 1 1.1704126037824700e+01 -9.0229852094653895e-01 1.7977531492145243e+01 0 -1 1
2405 1 1.4272427302535037e+01 1.5271663137468487e+00 1.5783856284977738e+01 0 0 1
52 1 1.6371270375536980e+01 2.2469529076340531e+00 1.4412396924918969e+01 0 0 1
3029 1 1.6174540296161251e+01 1.5447124183411098e-02 1.5313608227278650e+01 1 1 0
177 1 1.6552279727253268e+01 1.8426893662183290e+00 1.6977886676444452e+01 -1 1 -2
3425 2 1.4872474923801644e+01 -5.7530910439545435e-01 1.7658015320243578e+01 0 1 0
3031 1 1.7913634125323192e+01 5.2925717541245643e-03 1.7714029521445134e+01 -1 -1 1
1588 1 -1.2245719581280110e+00 6.3059605395363230e+00 1.7332968767078665e+01 -1 1 -1
669 1 2.0912175683175445e+00 6.9371302244058732e+00 1.3585515175152089e+01 -1 0 1
1543 1 -8.2631500181825190e-02 3.5351171935552923e+00 1.6655679176813884e+01 0 0 -2
2183 1 2.4031601341877158e+00 3.7383587278716846e+00 1.6833878566293897e+01 0 1 -1
3576 2 1.1842017338749011e+00 4.4434755787098910e+00 1.4163821830710839e+01 0 1 0
159 1 9.6100500400470157e-01 5.9063814976473372e+00 1.6366825218282518e+01 0 0 3
898 1 3.3322746040377673e+00 5.7323039647824965e+00 1.5403544517198309e+01 0 2 0
1134 1 3.0998341544449914e+00 6.1789416906998698e+00 1.7810369554262344e+01 -1 -2 -1
2551 1 3.6693357900657846e+00 3.3182949634058128e+00 1.4494981335302503e+01 0 1 1
3593 2 5.0379109039335601e+00 4.2082014334736346e+00 1.7315292301283751e+01 0 1 -1
2464 1 5.5391817081857750e+00 5.0043306763624136e+00 1.4780103751277753e+01 1 1 0
3731 2 7.9500468244730271e+00 3.8037918615634307e+00 1.5288429616803487e+01 0 1 1
1602 1 7.1467614790265710e+00 6.0442978245818670e+00 1.6838822329636397e+01 0 0 -1
2862 1 7.4658767962413322e+00 6.4623827403814529e+00 1.4328183648686574e+01 0 1 -1
299 1 5.0355836569287407e+00 7.3752534472437894e+00 1.6573632367616650e+01 0 1 0
3937 2 1.2189970949288449e+01 4.2687557883048468e+00 1.7665445262049698e+01 2 0 0
1701 1 1.0532883992577709e+01 4.7426948178904498e+00 1.5183828990109905e+01 0 1 2
1381 1 1.1196270762790489e+01 6.6449398815948362e+00 1.6628201977968999e+01 2 0 0
1681 1 9.4303999933606626e+00 5.1194796961106004e+00 1.7369748886551829e+01 2 -1 -1
2124 1 1.2928171551042643e+01 5.4643665130587129e+00 1.5134762671600580e+01 1 1 -1
1126 1 1.4080268630029281e+01 3.0581127950297322e+00 1.3750996442930708e+01 0 1 0
1048 1 1.7418043813891256e+01 5.9565227324058743e+00 1.6233075270587154e+01 1 0 1
2201 1 1.6912211902984641e+01 4.9990761078841413e+00 1.3904638949333865e+01 -1 0 1
3684 2 1.5149860886191274e+01 4.1762674122869079e+00 1.6145744118173440e+01 0 0 0
3175 1 1.3752587934656225e+01 6.6851003647745513e+00 1.7198401659426562e+01 2 1 0
3229 2 1.5143789290015054e+01 7.1774040038894267e+00 1.4904248639084418e+01 -1 -1 0
1094 1 1.8041013533479823e+01 3.5853259916113442e+00 1.5656007205909049e+01 1 0 1
2988 1 1.7361204302377580e+01 3.9772705899479446e+00 1.7995065479596448e+01 -1 -1 0
1373 1 1.7879460975110302e+01 7.3366997763128463e+00 1.4288084640616686e+01 1 -1 0
1731 1 3.1865940540209330e+00 1.1208019488146583e+01 1.6817276654237912e+01 0 -1 0
1533 1 3.4182725871324360e-01 8.6378860408394544e+00 1.4145311727160394e+01 0 2 1
1796 1 1.2445314770314728e+00 1.0591204009907342e+01 1.5245314167654957e+01 0 0 1
684 1 -2.9991003274210504e-01 8.8671465659993700e+00 1.6741185635407103e+01 -1 -1 1
3282 2 2.3435963846483010e+00 8.2515374540786404e+00 1.6057778128078475e+01 0 0 0
3898 2 5.0382948473931854e+00 7.5503590456915024e+00 1.3659705998572397e+01 0 0 0
404 1 5.5279010876917978e+00 1.0225870253823860e+01 1.7334033007941024e+01 0 1 -1
306 1 5.8134912933460807e+00 1.0406172774754872e+01 1.3492535345007056e+01 -1 -1 -1
1628 1 4.4110054459535091e+00 9.6282362282067968e+00 1.5307231585376094e+01 1 -1 0
3474 2 7.4630575235277874e+00 9.3653570472422594e+00 1.5733428410279959e+01 -1 1 1
3335 2 1.2036869942855857e+01 1.1483534171911948e+01 1.4567768346121619e+01 -1 0 1
3807 2 9.9570845985961078e+00 7.4335082090043354e+00 1.4244821929458404e+01 0 0 1
3043 1 1.2477869512502325e+01 8.1803659937138224e+00 1.5313670757168268e+01 1 -1 2
2775 1 9.4185435208244837e+00 1.0306442171104065e+01 1.3838889000760844e+01 0 1 -2
1938 1 1.1573008383020332e+01 1.1253527041097637e+01 1.7354459672633059e+01 0 0 0
847 1 1.0469760979447033e+01 9.4685526352479794e+00 1.5916041570043504e+01 -1 -1 -2
1760 1 9.1018958917118340e+00 7.7075174223087632e+00 1.7337800332455878e+01 0 2 0
1738 1 9.2177475160981253e+00 1.0370004745030874e+01 1.7766628515970321e+01 0 1 1
2940 1 1.4046776225554961e+01 9.4026448225812569e+00 1.3791857268362362e+01 1 0 0
3308 2 1.6063992905353231e+01 1.0895397744458290e+01 1.7428050796166875e+01 0 0 1
2450 1 1.3695989516258487e+01 9.9026650511546741e+00 1.6449388629526954e+01 0 0 -1
1544 1 1.4962307105670948e+01 1.1425428703510164e+01 1.4700569786555421e+01 1 0 0
1616 1 1.6540198983236756e+01 9.4446227348695508e+00 1.4362761278768064e+01 0 0 0
1885 1 1.7538829126021330e+01 1.1451432613593454e+01 1.5216401580338129e+01 0 1 -2
548 1 1.6922410437877705e+01 8.4175573287106715e+00 1.6659258173089167e+01 0 1 0
147 1 1.6552718942298941e+00 2.5667835685089910e+00 2.0354403421800466e+01 2 2 -1
2849 1 2.6699592884891277e+00 2.2500343125023070e-01 2.0281104787202917e+01 1 1 1
1969 1 1.5379038293974512e-01 6.8163428379023605e-01 2.0641989225488320e+01 2 0 1
2827 1 -1.0607870501932357e+00 2.4746751213872509e+00 1.9044596789021494e+01 2 1 -1
2288 1 1.4863991972883244e+00 3.1597556064605703e-01 2.2774340952798106e+01 1 0 -1
2650 1 2.8891137614299005e+00 -1.1043906838865634e+00 1.8068959282260714e+01 0 1 2
576 1 3.6090544752610212e+00 2.0670924396185373e+00 1.8850356641359337e+01 1 1 0
2297 1 1.3403232452067371e+01 1.1100133949460929e+01 2.2949339661488640e+01 1 -1 1
3430 2 3.9782500748798242e+00 2.5150434468497838e+00 2.1715440023715932e+01 0 1 0
3994 2 7.7063778243412173e+00 1.6281549758581368e+00 2.0601106805796572e+01 0 0 0
1417 1 5.2786552626650947e+00 3.7081138622353915e-01 2.0514814139195892e+01 -2 -1 0
623 1 5.9923425728945103e+00 1.8379414957450253e+00 1.8630705049624151e+01 -1 2 1
1671 1 6.7407668128482179e+00 -1.0962808014923084e+00 2.1924902280288311e+01 0 0 1
3549 2 4.0271421263254856e+00 -9.4698007727569755e-01 2.2740351722882789e+01 2 0 0
2353 1 7.3492139100971698e+00 -1.1619503822741466e+00 1.9521824978788196e+01 1 1 0
2691 1 9.1032080491144445e+00 -3.7090678929774379e-01 2.1833820535344991e+01 0 0 0
880 1 1.2212521908608325e+01 2.0481522747168590e+00 1.9627968785289340e+01 1 1 -1
2109 1 1.2692439724766007e+01 1.6414884297481445e+00 2.2086120364883950e+01 -1 0 0
836 1 1.0119921049306573e+01 9.6003694257904559e-01 1.8769485553475796e+01 -1 0 1