# LAMMPS data file written by OVITO
608 atoms
3 atom types
0.0 21.7091999 xlo xhi
0.0 21.7056008 ylo yhi
0.0 17.3512001 zlo zhi

Atoms # atomic

1 1 0.0 0.0 3.7076044
2 1 0.0 5.4264002 3.7076044
3 1 0.0 10.8528004 3.7076044
4 1 0.0 16.2792015 3.7076044
5 1 5.4273 0.0 3.7076044
6 1 5.4273 5.4264002 3.7076044
7 1 5.4273 10.8528004 3.7076044
8 1 5.4273 16.2792015 3.7076044
9 1 10.8546 0.0 3.7076044
10 1 10.8546 5.4264002 3.7076044
11 1 10.8546 10.8528004 3.7076044
12 1 10.8546 16.2792015 3.7076044
13 1 16.2819004 0.0 3.7076044
14 1 16.2819004 5.4264002 3.7076044
15 1 16.2819004 10.8528004 3.7076044
16 1 16.2819004 16.2792015 3.7076044
17 1 2.71365 2.7132001 3.7076044
18 1 2.71365 8.1396008 3.7076044
19 1 2.71365 13.566 3.7076044
20 1 2.71365 18.9924012 3.7076044
21 1 8.1409502 2.7132001 3.7076044
22 1 8.1409502 8.1396008 3.7076044
23 1 8.1409502 13.566 3.7076044
24 1 8.1409502 18.9924012 3.7076044
25 1 13.5682497 2.7132001 3.7076044
26 1 13.5682497 8.1396008 3.7076044
27 1 13.5682497 13.566 3.7076044
28 1 13.5682497 18.9924012 3.7076044
29 1 18.9955502 2.7132001 3.7076044
30 1 18.9955502 8.1396008 3.7076044
31 1 18.9955502 13.566 3.7076044
32 1 18.9955502 18.9924012 3.7076044
33 1 0.0 0.0 8.4722443
34 1 0.0 5.4264002 8.4722443
35 1 0.0 10.8528004 8.4722443
36 1 0.0 16.2792015 8.4722443
37 1 5.4273 0.0 8.4722443
38 1 5.4273 5.4264002 8.4722443
39 1 5.4273 10.8528004 8.4722443
40 1 5.4273 16.2792015 8.4722443
41 1 10.8546 0.0 8.4722443
42 1 10.8546 5.4264002 8.4722443
43 1 10.8546 10.8528004 8.4722443
44 1 10.8546 16.2792015 8.4722443
45 1 16.2819004 0.0 8.4722443
46 1 16.2819004 5.4264002 8.4722443
47 1 16.2819004 10.8528004 8.4722443
48 1 16.2819004 16.2792015 8.4722443
49 1 2.71365 2.7132001 8.4722443
50 1 2.71365 8.1396008 8.4722443
51 1 2.71365 13.566 8.4722443
52 1 2.71365 18.9924012 8.4722443
53 1 8.1409502 2.7132001 8.4722443
54 1 8.1409502 8.1396008 8.4722443
55 1 8.1409502 13.566 8.4722443
56 1 8.1409502 18.9924012 8.4722443
57 1 13.5682497 2.7132001 8.4722443
58 1 13.5682497 8.1396008 8.4722443
59 1 13.5682497 13.566 8.4722443
60 1 13.5682497 18.9924012 8.4722443
61 1 18.9955502 2.7132001 8.4722443
62 1 18.9955502 8.1396008 8.4722443
63 1 18.9955502 13.566 8.4722443
64 1 18.9955502 18.9924012 8.4722443
65 1 0.0 0.0 12.855504
66 1 0.0 5.4264002 12.855504
67 1 0.0 10.8528004 12.855504
68 1 0.0 16.2792015 12.855504
69 1 5.4273 0.0 12.855504
70 1 5.4273 5.4264002 12.855504
71 1 5.4273 10.8528004 12.855504
72 1 5.4273 16.2792015 12.855504
73 1 10.8546 0.0 12.855504
74 1 10.8546 5.4264002 12.855504
75 1 10.8546 10.8528004 12.855504
76 1 10.8546 16.2792015 12.855504
77 1 16.2819004 0.0 12.855504
78 1 16.2819004 5.4264002 12.855504
79 1 16.2819004 10.8528004 12.855504
80 1 16.2819004 16.2792015 12.855504
81 1 2.71365 2.7132001 12.855504
82 1 2.71365 8.1396008 12.855504
83 1 2.71365 13.566 12.855504
84 1 2.71365 18.9924012 12.855504
85 1 8.1409502 2.7132001 12.855504
86 1 8.1409502 8.1396008 12.855504
87 1 8.1409502 13.566 12.855504
88 1 8.1409502 18.9924012 12.855504
89 1 13.5682497 2.7132001 12.855504
90 1 13.5682497 8.1396008 12.855504
91 1 13.5682497 13.566 12.855504
92 1 13.5682497 18.9924012 12.855504
93 1 18.9955502 2.7132001 12.855504
94 1 18.9955502 8.1396008 12.855504
95 1 18.9955502 13.566 12.855504
96 1 18.9955502 18.9924012 12.855504
97 1 2.71365 0.0 15.501215
98 1 2.71365 5.4264002 15.501215
99 1 2.71365 10.8528004 15.501215
100 1 2.71365 16.2792015 15.501215
101 1 8.1409502 0.0 15.501215
102 1 8.1409502 5.4264002 15.501215
103 1 8.1409502 10.8528004 15.501215
104 1 8.1409502 16.2792015 15.501215
105 1 13.5682497 0.0 15.501215
106 1 13.5682497 5.4264002 15.501215
107 1 13.5682497 10.8528004 15.501215
108 1 13.5682497 16.2792015 15.501215
109 1 18.9955502 0.0 15.501215
110 1 18.9955502 5.4264002 15.501215
111 1 18.9955502 10.8528004 15.501215
112 1 18.9955502 16.2792015 15.501215
113 1 0.0 2.7132001 15.501215
114 1 0.0 8.1396008 15.501215
115 1 0.0 13.566 15.501215
116 1 0.0 18.9924012 15.501215
117 1 5.4273 2.7132001 15.501215
118 1 5.4273 8.1396008 15.501215
119 1 5.4273 13.566 15.501215
120 1 5.4273 18.9924012 15.501215
121 1 10.8546 2.7132001 15.501215
122 1 10.8546 8.1396008 15.501215
123 1 10.8546 13.566 15.501215
124 1 10.8546 18.9924012 15.501215
125 1 16.2819004 2.7132001 15.501215
126 1 16.2819004 8.1396008 15.501215
127 1 16.2819004 13.566 15.501215
128 1 16.2819004 18.9924012 15.501215
129 2 2.71365 0.0 0.0
130 2 2.71365 5.4264002 0.0
131 2 2.71365 10.8528004 0.0
132 2 2.71365 16.2792015 0.0
133 2 8.1409502 0.0 0.0
134 2 8.1409502 5.4264002 0.0
135 2 8.1409502 10.8528004 0.0
136 2 8.1409502 16.2792015 0.0
137 2 13.5682497 0.0 0.0
138 2 13.5682497 5.4264002 0.0
139 2 13.5682497 10.8528004 0.0
140 2 13.5682497 16.2792015 0.0
141 2 18.9955502 0.0 0.0
142 2 18.9955502 5.4264002 0.0
143 2 18.9955502 10.8528004 0.0
144 2 18.9955502 16.2792015 0.0
145 2 0.0 2.7132001 0.0
146 2 0.0 8.1396008 0.0
147 2 0.0 13.566 0.0
148 2 0.0 18.9924012 0.0
149 2 5.4273 2.7132001 0.0
150 2 5.4273 8.1396008 0.0
151 2 5.4273 13.566 0.0
152 2 5.4273 18.9924012 0.0
153 2 10.8546 2.7132001 0.0
154 2 10.8546 8.1396008 0.0
155 2 10.8546 13.566 0.0
156 2 10.8546 18.9924012 0.0
157 2 16.2819004 2.7132001 0.0
158 2 16.2819004 8.1396008 0.0
159 2 16.2819004 13.566 0.0
160 2 16.2819004 18.9924012 0.0
161 2 1.356825 1.3566001 2.4109492
162 2 1.356825 6.783 2.4109492
163 2 1.356825 12.2094002 2.4109492
164 2 1.356825 17.6358013 2.4109492
165 2 6.7841249 1.3566001 2.4109492
166 2 6.7841249 6.783 2.4109492
167 2 6.7841249 12.2094002 2.4109492
168 2 6.7841249 17.6358013 2.4109492
169 2 12.2114248 1.3566001 2.4109492
170 2 12.2114248 6.783 2.4109492
171 2 12.2114248 12.2094002 2.4109492
172 2 12.2114248 17.6358013 2.4109492
173 2 17.6387253 1.3566001 2.4109492
174 2 17.6387253 6.783 2.4109492
175 2 17.6387253 12.2094002 2.4109492
176 2 17.6387253 17.6358013 2.4109492
177 2 4.0704751 1.3566001 2.4109492
178 2 4.0704751 6.783 2.4109492
179 2 4.0704751 12.2094002 2.4109492
180 2 4.0704751 17.6358013 2.4109492
181 2 9.4977751 1.3566001 2.4109492
182 2 9.4977751 6.783 2.4109492
183 2 9.4977751 12.2094002 2.4109492
184 2 9.4977751 17.6358013 2.4109492
185 2 14.9250746 1.3566001 2.4109492
186 2 14.9250746 6.783 2.4109492
187 2 14.9250746 12.2094002 2.4109492
188 2 14.9250746 17.6358013 2.4109492
189 2 20.352375 1.3566001 2.4109492
190 2 20.352375 6.783 2.4109492
191 2 20.352375 12.2094002 2.4109492
192 2 20.352375 17.6358013 2.4109492
193 2 1.356825 4.0698004 2.4109492
194 2 1.356825 9.4962006 2.4109492
195 2 1.356825 14.9226008 2.4109492
196 2 1.356825 20.3490009 2.4109492
197 2 6.7841249 4.0698004 2.4109492
198 2 6.7841249 9.4962006 2.4109492
199 2 6.7841249 14.9226008 2.4109492
200 2 6.7841249 20.3490009 2.4109492
201 2 12.2114248 4.0698004 2.4109492
202 2 12.2114248 9.4962006 2.4109492
203 2 12.2114248 14.9226008 2.4109492
204 2 12.2114248 20.3490009 2.4109492
205 2 17.6387253 4.0698004 2.4109492
206 2 17.6387253 9.4962006 2.4109492
207 2 17.6387253 14.9226008 2.4109492
208 2 17.6387253 20.3490009 2.4109492
209 2 4.0704751 4.0698004 2.4109492
210 2 4.0704751 9.4962006 2.4109492
211 2 4.0704751 14.9226008 2.4109492
212 2 4.0704751 20.3490009 2.4109492
213 2 9.4977751 4.0698004 2.4109492
214 2 9.4977751 9.4962006 2.4109492
215 2 9.4977751 14.9226008 2.4109492
216 2 9.4977751 20.3490009 2.4109492
217 2 14.9250746 4.0698004 2.4109492
218 2 14.9250746 9.4962006 2.4109492
219 2 14.9250746 14.9226008 2.4109492
220 2 14.9250746 20.3490009 2.4109492
221 2 20.352375 4.0698004 2.4109492
222 2 20.352375 9.4962006 2.4109492
223 2 20.352375 14.9226008 2.4109492
224 2 20.352375 20.3490009 2.4109492
225 2 2.71365 0.0 4.6440487
226 2 2.71365 5.4264002 4.6440487
227 2 2.71365 10.8528004 4.6440487
228 2 2.71365 16.2792015 4.6440487
229 2 8.1409502 0.0 4.6440487
230 2 8.1409502 5.4264002 4.6440487
231 2 8.1409502 10.8528004 4.6440487
232 2 8.1409502 16.2792015 4.6440487
233 2 13.5682497 0.0 4.6440487
234 2 13.5682497 5.4264002 4.6440487
235 2 13.5682497 10.8528004 4.6440487
236 2 13.5682497 16.2792015 4.6440487
237 2 18.9955502 0.0 4.6440487
238 2 18.9955502 5.4264002 4.6440487
239 2 18.9955502 10.8528004 4.6440487
240 2 18.9955502 16.2792015 4.6440487
241 2 0.0 2.7132001 4.6440487
242 2 0.0 8.1396008 4.6440487
243 2 0.0 13.566 4.6440487
244 2 0.0 18.9924012 4.6440487
245 2 5.4273 2.7132001 4.6440487
246 2 5.4273 8.1396008 4.6440487
247 2 5.4273 13.566 4.6440487
248 2 5.4273 18.9924012 4.6440487
249 2 10.8546 2.7132001 4.6440487
250 2 10.8546 8.1396008 4.6440487
251 2 10.8546 13.566 4.6440487
252 2 10.8546 18.9924012 4.6440487
253 2 16.2819004 2.7132001 4.6440487
254 2 16.2819004 8.1396008 4.6440487
255 2 16.2819004 13.566 4.6440487
256 2 16.2819004 18.9924012 4.6440487
257 2 1.356825 1.3566001 6.8566738
258 2 1.356825 6.783 6.8566738
259 2 1.356825 12.2094002 6.8566738
260 2 1.356825 17.6358013 6.8566738
261 2 6.7841249 1.3566001 6.8566738
262 2 6.7841249 6.783 6.8566738
263 2 6.7841249 12.2094002 6.8566738
264 2 6.7841249 17.6358013 6.8566738
265 2 12.2114248 1.3566001 6.8566738
266 2 12.2114248 6.783 6.8566738
267 2 12.2114248 12.2094002 6.8566738
268 2 12.2114248 17.6358013 6.8566738
269 2 17.6387253 1.3566001 6.8566738
270 2 17.6387253 6.783 6.8566738
271 2 17.6387253 12.2094002 6.8566738
272 2 17.6387253 17.6358013 6.8566738
273 2 4.0704751 1.3566001 6.8566738
274 2 4.0704751 6.783 6.8566738
275 2 4.0704751 12.2094002 6.8566738
276 2 4.0704751 17.6358013 6.8566738
277 2 9.4977751 1.3566001 6.8566738
278 2 9.4977751 6.783 6.8566738
279 2 9.4977751 12.2094002 6.8566738
280 2 9.4977751 17.6358013 6.8566738
281 2 14.9250746 1.3566001 6.8566738
282 2 14.9250746 6.783 6.8566738
283 2 14.9250746 12.2094002 6.8566738
284 2 14.9250746 17.6358013 6.8566738
285 2 20.352375 1.3566001 6.8566738
286 2 20.352375 6.783 6.8566738
287 2 20.352375 12.2094002 6.8566738
288 2 20.352375 17.6358013 6.8566738
289 2 1.356825 4.0698004 6.8566738
290 2 1.356825 9.4962006 6.8566738
291 2 1.356825 14.9226008 6.8566738
292 2 1.356825 20.3490009 6.8566738
293 2 6.7841249 4.0698004 6.8566738
294 2 6.7841249 9.4962006 6.8566738
295 2 6.7841249 14.9226008 6.8566738
296 2 6.7841249 20.3490009 6.8566738
297 2 12.2114248 4.0698004 6.8566738
298 2 12.2114248 9.4962006 6.8566738
299 2 12.2114248 14.9226008 6.8566738
300 2 12.2114248 20.3490009 6.8566738
301 2 17.6387253 4.0698004 6.8566738
302 2 17.6387253 9.4962006 6.8566738
303 2 17.6387253 14.9226008 6.8566738
304 2 17.6387253 20.3490009 6.8566738
305 2 4.0704751 4.0698004 6.8566738
306 2 4.0704751 9.4962006 6.8566738
307 2 4.0704751 14.9226008 6.8566738
308 2 4.0704751 20.3490009 6.8566738
309 2 9.4977751 4.0698004 6.8566738
310 2 9.4977751 9.4962006 6.8566738
311 2 9.4977751 14.9226008 6.8566738
312 2 9.4977751 20.3490009 6.8566738
313 2 14.9250746 4.0698004 6.8566738
314 2 14.9250746 9.4962006 6.8566738
315 2 14.9250746 14.9226008 6.8566738
316 2 14.9250746 20.3490009 6.8566738
317 2 20.352375 4.0698004 6.8566738
318 2 20.352375 9.4962006 6.8566738
319 2 20.352375 14.9226008 6.8566738
320 2 20.352375 20.3490009 6.8566738
321 2 2.71365 0.0 8.6835823
322 2 2.71365 5.4264002 8.6835823
323 2 2.71365 10.8528004 8.6835823
324 2 2.71365 16.2792015 8.6835823
325 2 8.1409502 0.0 8.6835823
326 2 8.1409502 5.4264002 8.6835823
327 2 8.1409502 10.8528004 8.6835823
328 2 8.1409502 16.2792015 8.6835823
329 2 13.5682497 0.0 8.6835823
330 2 13.5682497 5.4264002 8.6835823
331 2 13.5682497 10.8528004 8.6835823
332 2 13.5682497 16.2792015 8.6835823
333 2 18.9955502 0.0 8.6835823
334 2 18.9955502 5.4264002 8.6835823
335 2 18.9955502 10.8528004 8.6835823
336 2 18.9955502 16.2792015 8.6835823
337 2 0.0 2.7132001 8.6835823
338 2 0.0 8.1396008 8.6835823
339 2 0.0 13.566 8.6835823
340 2 0.0 18.9924012 8.6835823
341 2 5.4273 2.7132001 8.6835823
342 2 5.4273 8.1396008 8.6835823
343 2 5.4273 13.566 8.6835823
344 2 5.4273 18.9924012 8.6835823
345 2 10.8546 2.7132001 8.6835823
346 2 10.8546 8.1396008 8.6835823
347 2 10.8546 13.566 8.6835823
348 2 10.8546 18.9924012 8.6835823
349 2 16.2819004 2.7132001 8.6835823
350 2 16.2819004 8.1396008 8.6835823
351 2 16.2819004 13.566 8.6835823
352 2 16.2819004 18.9924012 8.6835823
353 2 1.356825 1.3566001 10.6602307
354 2 1.356825 6.783 10.6602307
355 2 1.356825 12.2094002 10.6602307
356 2 1.356825 17.6358013 10.6602307
357 2 6.7841249 1.3566001 10.6602307
358 2 6.7841249 6.783 10.6602307
359 2 6.7841249 12.2094002 10.6602307
360 2 6.7841249 17.6358013 10.6602307
361 2 12.2114248 1.3566001 10.6602307
362 2 12.2114248 6.783 10.6602307
363 2 12.2114248 12.2094002 10.6602307
364 2 12.2114248 17.6358013 10.6602307
365 2 17.6387253 1.3566001 10.6602307
366 2 17.6387253 6.783 10.6602307
367 2 17.6387253 12.2094002 10.6602307
368 2 17.6387253 17.6358013 10.6602307
369 2 4.0704751 1.3566001 10.6602307
370 2 4.0704751 6.783 10.6602307
371 2 4.0704751 12.2094002 10.6602307
372 2 4.0704751 17.6358013 10.6602307
373 2 9.4977751 1.3566001 10.6602307
374 2 9.4977751 6.783 10.6602307
375 2 9.4977751 12.2094002 10.6602307
376 2 9.4977751 17.6358013 10.6602307
377 2 14.9250746 1.3566001 10.6602307
378 2 14.9250746 6.783 10.6602307
379 2 14.9250746 12.2094002 10.6602307
380 2 14.9250746 17.6358013 10.6602307
381 2 20.352375 1.3566001 10.6602307
382 2 20.352375 6.783 10.6602307
383 2 20.352375 12.2094002 10.6602307
384 2 20.352375 17.6358013 10.6602307
385 2 1.356825 4.0698004 10.6602307
386 2 1.356825 9.4962006 10.6602307
387 2 1.356825 14.9226008 10.6602307
388 2 1.356825 20.3490009 10.6602307
389 2 6.7841249 4.0698004 10.6602307
390 2 6.7841249 9.4962006 10.6602307
391 2 6.7841249 14.9226008 10.6602307
392 2 6.7841249 20.3490009 10.6602307
393 2 12.2114248 4.0698004 10.6602307
394 2 12.2114248 9.4962006 10.6602307
395 2 12.2114248 14.9226008 10.6602307
396 2 12.2114248 20.3490009 10.6602307
397 2 17.6387253 4.0698004 10.6602307
398 2 17.6387253 9.4962006 10.6602307
399 2 17.6387253 14.9226008 10.6602307
400 2 17.6387253 20.3490009 10.6602307
401 2 4.0704751 4.0698004 10.6602307
402 2 4.0704751 9.4962006 10.6602307
403 2 4.0704751 14.9226008 10.6602307
404 2 4.0704751 20.3490009 10.6602307
405 2 9.4977751 4.0698004 10.6602307
406 2 9.4977751 9.4962006 10.6602307
407 2 9.4977751 14.9226008 10.6602307
408 2 9.4977751 20.3490009 10.6602307
409 2 14.9250746 4.0698004 10.6602307
410 2 14.9250746 9.4962006 10.6602307
411 2 14.9250746 14.9226008 10.6602307
412 2 14.9250746 20.3490009 10.6602307
413 2 20.352375 4.0698004 10.6602307
414 2 20.352375 9.4962006 10.6602307
415 2 20.352375 14.9226008 10.6602307
416 2 20.352375 20.3490009 10.6602307
417 2 2.71365 0.0 12.6410437
418 2 2.71365 5.4264002 12.6410437
419 2 2.71365 10.8528004 12.6410437
420 2 2.71365 16.2792015 12.6410437
421 2 8.1409502 0.0 12.6410437
422 2 8.1409502 5.4264002 12.6410437
423 2 8.1409502 10.8528004 12.6410437
424 2 8.1409502 16.2792015 12.6410437
425 2 13.5682497 0.0 12.6410437
426 2 13.5682497 5.4264002 12.6410437
427 2 13.5682497 10.8528004 12.6410437
428 2 13.5682497 16.2792015 12.6410437
429 2 18.9955502 0.0 12.6410437
430 2 18.9955502 5.4264002 12.6410437
431 2 18.9955502 10.8528004 12.6410437
432 2 18.9955502 16.2792015 12.6410437
433 2 0.0 2.7132001 12.6410437
434 2 0.0 8.1396008 12.6410437
435 2 0.0 13.566 12.6410437
436 2 0.0 18.9924012 12.6410437
437 2 5.4273 2.7132001 12.6410437
438 2 5.4273 8.1396008 12.6410437
439 2 5.4273 13.566 12.6410437
440 2 5.4273 18.9924012 12.6410437
441 2 10.8546 2.7132001 12.6410437
442 2 10.8546 8.1396008 12.6410437
443 2 10.8546 13.566 12.6410437
444 2 10.8546 18.9924012 12.6410437
445 2 16.2819004 2.7132001 12.6410437
446 2 16.2819004 8.1396008 12.6410437
447 2 16.2819004 13.566 12.6410437
448 2 16.2819004 18.9924012 12.6410437
449 2 1.356825 1.3566001 14.5043888
450 2 1.356825 6.783 14.5043888
451 2 1.356825 12.2094002 14.5043888
452 2 1.356825 17.6358013 14.5043888
453 2 6.7841249 1.3566001 14.5043888
454 2 6.7841249 6.783 14.5043888
455 2 6.7841249 12.2094002 14.5043888
456 2 6.7841249 17.6358013 14.5043888
457 2 12.2114248 1.3566001 14.5043888
458 2 12.2114248 6.783 14.5043888
459 2 12.2114248 12.2094002 14.5043888
460 2 12.2114248 17.6358013 14.5043888
461 2 17.6387253 1.3566001 14.5043888
462 2 17.6387253 6.783 14.5043888
463 2 17.6387253 12.2094002 14.5043888
464 2 17.6387253 17.6358013 14.5043888
465 2 4.0704751 1.3566001 14.5043888
466 2 4.0704751 6.783 14.5043888
467 2 4.0704751 12.2094002 14.5043888
468 2 4.0704751 17.6358013 14.5043888
469 2 9.4977751 1.3566001 14.5043888
470 2 9.4977751 6.783 14.5043888
471 2 9.4977751 12.2094002 14.5043888
472 2 9.4977751 17.6358013 14.5043888
473 2 14.9250746 1.3566001 14.5043888
474 2 14.9250746 6.783 14.5043888
475 2 14.9250746 12.2094002 14.5043888
476 2 14.9250746 17.6358013 14.5043888
477 2 20.352375 1.3566001 14.5043888
478 2 20.352375 6.783 14.5043888
479 2 20.352375 12.2094002 14.5043888
480 2 20.352375 17.6358013 14.5043888
481 2 1.356825 4.0698004 14.5043888
482 2 1.356825 9.4962006 14.5043888
483 2 1.356825 14.9226008 14.5043888
484 2 1.356825 20.3490009 14.5043888
485 2 6.7841249 4.0698004 14.5043888
486 2 6.7841249 9.4962006 14.5043888
487 2 6.7841249 14.9226008 14.5043888
488 2 6.7841249 20.3490009 14.5043888
489 2 12.2114248 4.0698004 14.5043888
490 2 12.2114248 9.4962006 14.5043888
491 2 12.2114248 14.9226008 14.5043888
492 2 12.2114248 20.3490009 14.5043888
493 2 17.6387253 4.0698004 14.5043888
494 2 17.6387253 9.4962006 14.5043888
495 2 17.6387253 14.9226008 14.5043888
496 2 17.6387253 20.3490009 14.5043888
497 2 4.0704751 4.0698004 14.5043888
498 2 4.0704751 9.4962006 14.5043888
499 2 4.0704751 14.9226008 14.5043888
500 2 4.0704751 20.3490009 14.5043888
501 2 9.4977751 4.0698004 14.5043888
502 2 9.4977751 9.4962006 14.5043888
503 2 9.4977751 14.9226008 14.5043888
504 2 9.4977751 20.3490009 14.5043888
505 2 14.9250746 4.0698004 14.5043888
506 2 14.9250746 9.4962006 14.5043888
507 2 14.9250746 14.9226008 14.5043888
508 2 14.9250746 20.3490009 14.5043888
509 2 20.352375 4.0698004 14.5043888
510 2 20.352375 9.4962006 14.5043888
511 2 20.352375 14.9226008 14.5043888
512 2 20.352375 20.3490009 14.5043888
513 3 2.71365 0.0 1.6631125
514 3 2.71365 5.4264002 1.6631125
515 3 2.71365 10.8528004 1.6631125
516 3 2.71365 16.2792015 1.6631125
517 3 8.1409502 0.0 1.6631125
518 3 8.1409502 5.4264002 1.6631125
519 3 8.1409502 10.8528004 1.6631125
520 3 8.1409502 16.2792015 1.6631125
521 3 13.5682497 0.0 1.6631125
522 3 13.5682497 5.4264002 1.6631125
523 3 13.5682497 10.8528004 1.6631125
524 3 13.5682497 16.2792015 1.6631125
525 3 18.9955502 0.0 1.6631125
526 3 18.9955502 5.4264002 1.6631125
527 3 18.9955502 10.8528004 1.6631125
528 3 18.9955502 16.2792015 1.6631125
529 3 0.0 2.7132001 1.6631125
530 3 0.0 8.1396008 1.6631125
531 3 0.0 13.566 1.6631125
532 3 0.0 18.9924012 1.6631125
533 3 5.4273 2.7132001 1.6631125
534 3 5.4273 8.1396008 1.6631125
535 3 5.4273 13.566 1.6631125
536 3 5.4273 18.9924012 1.6631125
537 3 10.8546 2.7132001 1.6631125
538 3 10.8546 8.1396008 1.6631125
539 3 10.8546 13.566 1.6631125
540 3 10.8546 18.9924012 1.6631125
541 3 16.2819004 2.7132001 1.6631125
542 3 16.2819004 8.1396008 1.6631125
543 3 16.2819004 13.566 1.6631125
544 3 16.2819004 18.9924012 1.6631125
545 3 2.71365 0.0 6.4617605
546 3 2.71365 5.4264002 6.4617605
547 3 2.71365 10.8528004 6.4617605
548 3 2.71365 16.2792015 6.4617605
549 3 8.1409502 0.0 6.4617605
550 3 8.1409502 5.4264002 6.4617605
551 3 8.1409502 10.8528004 6.4617605
552 3 8.1409502 16.2792015 6.4617605
553 3 13.5682497 0.0 6.4617605
554 3 13.5682497 5.4264002 6.4617605
555 3 13.5682497 10.8528004 6.4617605
556 3 13.5682497 16.2792015 6.4617605
557 3 18.9955502 0.0 6.4617605
558 3 18.9955502 5.4264002 6.4617605
559 3 18.9955502 10.8528004 6.4617605
560 3 18.9955502 16.2792015 6.4617605
561 3 0.0 2.7132001 6.4617605
562 3 0.0 8.1396008 6.4617605
563 3 0.0 13.566 6.4617605
564 3 0.0 18.9924012 6.4617605
565 3 5.4273 2.7132001 6.4617605
566 3 5.4273 8.1396008 6.4617605
567 3 5.4273 13.566 6.4617605
568 3 5.4273 18.9924012 6.4617605
569 3 10.8546 2.7132001 6.4617605
570 3 10.8546 8.1396008 6.4617605
571 3 10.8546 13.566 6.4617605
572 3 10.8546 18.9924012 6.4617605
573 3 16.2819004 2.7132001 6.4617605
574 3 16.2819004 8.1396008 6.4617605
575 3 16.2819004 13.566 6.4617605
576 3 16.2819004 18.9924012 6.4617605
577 3 2.71365 0.0 10.676714
578 3 2.71365 5.4264002 10.676714
579 3 2.71365 10.8528004 10.676714
580 3 2.71365 16.2792015 10.676714
581 3 8.1409502 0.0 10.676714
582 3 8.1409502 5.4264002 10.676714
583 3 8.1409502 10.8528004 10.676714
584 3 8.1409502 16.2792015 10.676714
585 3 13.5682497 0.0 10.676714
586 3 13.5682497 5.4264002 10.676714
587 3 13.5682497 10.8528004 10.676714
588 3 13.5682497 16.2792015 10.676714
589 3 18.9955502 0.0 10.676714
590 3 18.9955502 5.4264002 10.676714
591 3 18.9955502 10.8528004 10.676714
592 3 18.9955502 16.2792015 10.676714
593 3 0.0 2.7132001 10.676714
594 3 0.0 8.1396008 10.676714
595 3 0.0 13.566 10.676714
596 3 0.0 18.9924012 10.676714
597 3 5.4273 2.7132001 10.676714
598 3 5.4273 8.1396008 10.676714
599 3 5.4273 13.566 10.676714
600 3 5.4273 18.9924012 10.676714
601 3 10.8546 2.7132001 10.676714
602 3 10.8546 8.1396008 10.676714
603 3 10.8546 13.566 10.676714
604 3 10.8546 18.9924012 10.676714
605 3 16.2819004 2.7132001 10.676714
606 3 16.2819004 8.1396008 10.676714
607 3 16.2819004 13.566 10.676714
608 3 16.2819004 18.9924012 10.676714
