LAMMPS data file via write_data, version 3 Mar 2020, timestep = 4499500

4000 atoms
2 atom types

-4.2451412055790421e+00 4.0345141205568964e+01 xlo xhi
-4.2451412055790421e+00 4.0345141205568964e+01 ylo yhi
-4.2451412055790421e+00 4.0345141205568964e+01 zlo zhi

Masses

1 63.546
2 91.224

Atoms # atomic

138 1 -1.4536253901275051e+00 -2.5824039977267059e+00 -1.3599572442489243e+00 -1 1 0
1509 2 -2.6867048033018319e+00 -8.5839163838189236e-02 -3.5438634417631931e-01 -1 1 0
1607 2 -2.5189051688432480e+00 -5.3180251618841989e-01 -3.5527406382793982e+00 -1 0 1
3349 2 -2.1757803928357613e+00 -3.7281079817974772e+00 -3.9389807709585831e+00 2 0 -1
2470 2 2.6115813990015369e-01 -5.2194964994342508e-01 4.4268857007052098e-01 1 0 0
3963 2 5.5642392779080918e-01 -1.0618366372168966e+00 -2.5582242596188949e+00 0 2 2
3742 2 1.1565125281182747e+00 -3.4427550288061477e+00 -3.3833571085448000e-01 1 0 1
77 1 3.2415087810267940e+00 -1.5214037947303178e+00 -2.1291305015664039e+00 -1 1 2
812 2 1.0281786381972866e+00 -4.1458847660581304e+00 -3.3585623736922861e+00 0 -1 1
1864 2 3.1416497278516893e+00 -1.1505562309772044e+00 5.2748812274287715e-01 0 -1 1
550 2 3.9911698181806194e+00 -4.1309978650704950e+00 7.1701348736026738e-01 -1 -1 0
338 1 5.4445504439807362e+00 -2.6999996854330544e+00 -3.8136003790988471e+00 2 0 -1
3707 2 5.4141423530270369e+00 -2.0417800380635676e-02 -3.0824723512377474e+00 0 0 1
1703 2 5.9875275360401616e+00 -2.1086034610979301e+00 -7.9088807771638336e-01 0 2 0
601 2 8.1543765846497447e+00 -2.9222854456865779e+00 -3.1593951639438416e+00 1 -1 1
2125 2 8.3058489906749475e+00 -2.3214084246338462e-01 -1.9808915196276007e+00 1 0 1
3224 2 8.9377553705410833e+00 -2.6291368511494060e+00 1.3820279279509595e-01 1 0 0
871 2 1.1307135405245594e+01 -7.4394657338046022e-01 -1.1934003208440367e+00 1 0 0
2147 2 1.1047992564295622e+01 -3.5102315018536832e+00 -2.0711017544065609e+00 1 1 1
405 2 1.3524988121634692e+01 -1.7795599698582176e+00 -3.2586928494781913e+00 0 -1 0
3708 2 1.4232630753724912e+01 -1.4138927445696519e+00 -1.3140586425662537e-01 0 0 -1
1980 2 1.6483488159201677e+01 -2.3273061832897026e+00 -2.3443770175141907e+00 0 1 0
691 2 1.4030068575066842e+01 -4.1659162864013615e+00 -1.0902998823398331e+00 0 2 0
2600 2 1.7693142126874431e+01 -1.8182025141558267e-01 -4.0670484459730627e+00 0 0 1
1178 2 1.7144429863646895e+01 -1.8787323993099414e+00 6.9725522047822697e-01 0 0 0
3252 2 -3.8437334759198922e+00 5.2295042337536586e+00 -2.1536189193127182e+00 1 1 -1
3030 2 -3.9119515321027687e+00 2.2631776276734099e+00 -2.8848197888547400e+00 0 1 0
2509 2 -8.0978142846572831e-01 1.7374305159602272e+00 -1.9744739522050501e+00 1 0 2
1504 2 -3.1999808105491905e+00 2.9990437385217232e+00 7.2493579705259492e-03 -1 0 0
2984 2 -7.8524771194715193e-01 4.7483331142526186e+00 -1.2864416451050773e+00 2 2 -1
1512 2 2.1058462169618641e+00 1.6210940431737813e+00 -9.9832584654652701e-01 0 1 1
1222 2 1.5041355939034613e+00 3.7453592476446955e+00 -3.4243088792537573e+00 1 2 1
194 1 1.9397558722679618e+00 4.4818088240165199e+00 -7.6024341717406196e-01 0 3 1
2919 2 4.3840108079032838e+00 3.3070021096063797e+00 -2.3586293559272500e+00 -1 1 0
177 1 3.9936360623479814e+00 3.4494604013341181e+00 5.4186297529256855e-01 0 0 2
2639 2 2.7428408297850622e+00 9.7251746750705070e-01 -3.9314242935708386e+00 1 1 1
3315 2 5.1628041461397007e+00 9.9664136845018714e-01 -2.2386997247397211e-01 1 0 1
423 2 7.3840226652004350e+00 2.8084207396528669e+00 -1.8327616772383433e+00 0 1 0
1953 2 6.1772908993612017e+00 5.3115863436800925e+00 -4.0196087837312957e+00 -1 0 2
175 1 8.7932790039455533e+00 4.9949775591442318e+00 -3.0491762795542945e+00 -2 0 1
3857 2 6.2527421944124022e+00 5.6359054612027037e+00 -9.4971660678978997e-01 1 0 1
2825 2 9.0853668258174487e+00 5.1359824307502819e+00 -7.2140428780498311e-02 0 0 -1
1330 2 9.5756332363157313e+00 1.9313560164450543e+00 -3.7410348485972023e+00 -1 -1 -1
3791 2 1.0172021310306768e+01 2.0470154648617411e+00 -5.1731440257153327e-01 1 1 0
1533 2 1.2532696632738535e+01 1.3936971580779725e+00 -3.0058502476716233e+00 -1 0 0
3821 2 1.1255795410541223e+01 4.1799134670142344e+00 -2.3009161416747865e+00 0 0 0
3379 2 1.3147959987317520e+01 1.5123464327607028e+00 2.6476990977255799e-01 -1 0 1
979 2 1.5430634388709208e+01 7.0672092215834148e-01 -1.8769807853684224e+00 0 1 -2
3901 2 1.5000773042633529e+01 3.0291124580829454e+00 -3.9775480308575348e+00 1 0 1
2488 2 1.7269435647319664e+01 3.1018284629557433e+00 -6.1106201637804958e-01 -1 1 0
538 2 1.4253323071649014e+01 3.8417391754408126e+00 -1.2447049673537620e+00 -1 1 1
95 1 1.7814653947384908e+01 2.3850152464631815e+00 -3.1652734574025043e+00 0 -1 0
2885 2 1.6538107273417445e+01 5.4571394290040161e+00 -2.5779219995569167e+00 0 2 0
3251 2 -2.0921496842503333e+00 7.5873355837308054e+00 -5.7653809899435737e-01 1 0 0
1734 2 -1.7565627431867616e+00 6.9472855177374129e+00 -3.5717546717951096e+00 -1 0 -1
1294 2 -2.7143465591830589e+00 9.8116143947551482e+00 -2.9452554896645609e+00 1 0 -1
2721 2 3.6056340589675884e-02 9.0928398012559395e+00 -2.3745429737962369e+00 -1 0 0
287 1 8.9281042505734209e-01 6.4804813721460235e+00 -2.6392000011873180e+00 0 1 -2
3948 2 3.4872526209571575e+00 6.2723715245323834e+00 -2.1658930888201935e+00 0 0 1
2650 2 9.1080403167778634e-01 7.0830547902940602e+00 1.7643380932593100e-01 1 0 1
2811 2 2.6675079426718460e+00 9.2104808672563987e+00 -1.3543814693939682e+00 -1 1 0
1634 2 5.5208524171623381e+00 8.3328052922904980e+00 -3.2075979125643745e+00 -1 1 1
785 2 8.3784712984256977e+00 7.6176657991027881e+00 -2.6576385055910863e+00 0 -1 0
1869 2 5.2014547665457727e+00 8.4856254670066029e+00 -1.8141245444709320e-01 0 0 1
2545 2 8.0912489761336808e+00 8.2847113531535754e+00 3.1354203679410642e-01 0 0 0
2909 2 7.4155826741720912e+00 1.0548010423318226e+01 -1.8477257733438224e+00 1 0 1
3898 2 1.0498151261784772e+01 9.4628419407256494e+00 -3.8578674763402088e+00 1 0 0
2227 2 1.1333870279779832e+01 7.0619514779495223e+00 -1.5012941583614574e+00 0 1 2
818 2 1.3295473974499913e+01 8.9399964899984834e+00 -2.9576033126653574e+00 0 0 0
1556 2 1.0292248603119578e+01 1.0032480989801982e+01 -8.3661068524971416e-01 0 0 0
1567 2 1.3088616203550703e+01 9.4835616403022129e+00 1.1738062482513723e-01 0 1 -1
2148 2 1.3649237824634501e+01 5.9106365709917981e+00 -3.6109924216806455e+00 0 1 -1
185 1 1.7612010440066182e+01 7.7983542499113767e+00 -1.0100025558199039e+00 -1 -1 1
3737 2 1.4404127251700018e+01 6.8381489157341946e+00 -7.4040288792668685e-01 0 1 0
153 1 1.5949886703686740e+01 8.5887948452405958e+00 -2.5304580763585731e+00 -1 0 2
3976 2 1.7120758217752414e+01 5.7611997785331432e+00 6.1059316062593716e-01 -1 1 0
3478 2 1.4881167646186487e+01 7.8963900071117319e+00 8.4440983707864010e+00 1 -1 0
879 2 -1.4574658171869856e+00 -2.8667844265604168e+00 1.4450862258209716e+00 1 2 0
430 2 -1.6706515765032610e+00 -2.1195941450954177e+00 4.5193308104282934e+00 1 1 0
125 1 -2.1680739903700572e+00 -7.3443023602277613e-02 2.3048548719974074e+00 0 0 1
2201 2 3.4657785290322440e-01 8.5758834565652364e-02 3.5677390887249940e+00 1 0 0
1667 2 1.4989569174062467e+00 -2.6673942513747937e+00 2.6782893313813831e+00 0 0 0
3421 2 3.3601062892564810e+00 -6.5441873539253548e-01 4.2716033357974901e+00 1 1 0
1333 2 4.5016079354066498e+00 -3.6164487920137560e+00 3.8505276675016678e+00 -1 0 -2
2733 2 1.1609901523979298e+00 -2.4656701427062639e+00 5.6432685990398817e+00 0 0 1
1303 2 7.4385976949161581e+00 -4.0651865939023626e+00 5.0670796090636312e+00 0 -1 0
814 2 7.8374232756609459e+00 3.8211071066330859e-01 9.5122270919952445e-01 0 0 1
3159 2 5.5776244761986149e+00 -1.4356519079704908e+00 2.1474870734379570e+00 1 0 1
1756 2 6.2620221930003837e+00 -1.1117864047932673e+00 5.2067874894862225e+00 1 1 1
988 2 8.4815782357019298e+00 -2.0508967306992720e+00 3.1065898585367355e+00 0 0 1
2957 2 1.1881915417261236e+01 -3.2482198641279068e+00 1.0242564765995974e+00 0 1 0
2516 2 1.1541845819904296e+01 1.0394903363195596e-01 4.9259553617543403e+00 0 1 0
2917 2 1.1401019211068451e+01 -2.6008389213330787e+00 3.9045361553908293e+00 1 2 1
1656 2 1.0808153814842761e+01 -2.4849154734381029e-01 1.7397655295841199e+00 0 2 1
2197 2 1.3744087828252034e+01 -6.8551883515741041e-01 2.7356402521942336e+00 1 -1 0
1334 2 1.4799718993935166e+01 -3.7453241886096138e+00 1.9928123284120272e+00 -1 2 0
2111 2 1.6663099685514403e+01 -1.3705157102417629e+00 3.6440663126555499e+00 -1 1 -1
2785 2 1.4305097819451994e+01 -3.1143153715539920e+00 4.8938786710925779e+00 -1 0 0
1824 2 -1.9607335191820394e+00 8.5168043420489425e-01 5.3721160627633466e+00 0 0 0
2316 2 -3.9932151829096751e-01 2.2655380050323091e+00 1.0445920493669218e+00 0 0 0
3790 2 -2.9180133506344070e+00 2.6810675223644767e+00 3.0065835920639916e+00 1 -1 0
2796 2 -1.3665724904665613e+00 5.1678179830838165e+00 1.7386201026201418e+00 0 2 0
3787 2 -1.2965153130124740e-01 3.1426846869862715e+00 4.0617932686445464e+00 1 0 -1
3067 2 2.6464816825733957e+00 1.4265252418402241e+00 2.0198869315139696e+00 0 -1 1
2442 2 2.6566913685006348e+00 2.2576371475036252e+00 4.9503965501746201e+00 0 1 1
3933 2 1.6414422980061261e+00 4.3447832339026320e+00 1.9901704195554206e+00 1 2 0
3577 2 2.2058074077588765e+00 5.1982951683181842e+00 5.4768408283598635e+00 1 1 0
2315 2 4.4675518438601358e+00 4.3178838844329803e+00 3.3848556838120665e+00 -1 0 0
1687 2 8.6852909922380768e+00 8.3973770913086909e-01 3.8816650260163801e+00 0 0 1
2022 2 5.5746745730811931e+00 1.3877326152494085e+00 3.0495060307147552e+00 1 1 1
2823 2 6.8220375058911173e+00 3.3858346460355895e+00 1.1494968388225999e+00 0 0 -1
2285 2 7.3574370300654106e+00 3.6762563605138592e+00 4.3627738457631686e+00 -1 0 -1
2144 2 1.1964395824286569e+01 4.5957216496603266e+00 8.0383544132392792e-01 1 1 0
206 1 9.5645192918722373e+00 2.6855416284631879e+00 2.0468088189906029e+00 2 0 0
1945 2 1.2294733571508299e+01 2.2495888806453346e+00 3.0630735035184822e+00 0 0 1
910 2 1.2789369428323759e+01 4.9463697895616541e+00 4.0737033811213852e+00 0 1 -1
1902 2 9.7695295566515075e+00 5.1953382771455967e+00 3.0458634442000019e+00 0 1 1
2559 2 1.0259490769335471e+01 3.1565520162157306e+00 5.4392197187216720e+00 1 0 0
3493 2 1.4831498357069968e+01 3.9729657182835449e+00 1.8051120842031354e+00 0 1 1
934 2 1.5386170969030324e+01 1.7925539197469735e+00 4.0692153353991767e+00 0 0 0
3605 2 1.6128657395424721e+01 1.0372835820726785e+00 1.2988039681856147e+00 1 1 0
260 1 1.5546442805136053e+01 4.3415472428621165e+00 4.9659421416874689e+00 0 0 -1
2222 2 1.7782309441757366e+01 3.4494582365074589e+00 2.7312859327804277e+00 -1 0 0
1832 2 -9.0105493280245419e-02 1.0074354784783351e+01 7.3581467297221348e-01 0 0 1
627 2 -3.6699910738437169e+00 6.0809937354293986e+00 3.6989362494647722e+00 0 -1 0
2804 2 -8.6751195566775730e-01 5.9434044204881076e+00 4.9876447357785576e+00 2 1 1
570 2 -1.4104563397711227e+00 8.0572379858751813e+00 2.4677696591703002e+00 0 0 0
345 1 -2.1609455984439836e+00 8.6139759329359649e+00 4.9264960446124810e+00 2 0 -1
3356 2 2.3787227948545553e-01 1.0258944413285905e+01 4.0890300898232397e+00 0 -1 0
607 2 3.7518852944787726e+00 6.2651853482280124e+00 1.0440789510141864e+00 1 -1 0
1730 2 1.2765539518963926e+00 7.1192455347224968e+00 3.2211059828471145e+00 2 2 -1
1893 2 3.9846186563607073e+00 7.4840386729520691e+00 3.9347276863362790e+00 -1 0 0
3337 2 2.8368961818969654e+00 9.5103586468547352e+00 1.8361036931433397e+00 1 0 1
3614 2 3.0032739302498443e+00 1.0098517224509783e+01 5.2659891600084112e+00 1 0 -2
1054 2 6.8138808508557389e+00 6.2402649243656860e+00 2.1825949107366238e+00 0 0 0
1299 2 8.5545942551363723e+00 8.4535478990602240e+00 3.6697088687206545e+00 0 0 -1
2292 2 6.0049336636557520e+00 9.3722846218675944e+00 2.6048497421899217e+00 0 0 0
3177 2 6.2661867463935739e+00 6.5184560592438405e+00 5.2554183347787227e+00 1 0 0
2305 2 1.0744830991414990e+01 7.4743241378768364e+00 1.4370319443971393e+00 0 1 1
2355 2 1.1420171099883143e+01 7.8257381898108331e+00 4.4903035143876799e+00 1 1 0
1536 2 1.0765434999643642e+01 1.0336250657583742e+01 2.4019707260336007e+00 0 -1 1
2809 2 1.3709932266169165e+01 7.0268604762634226e+00 2.1431419703151047e+00 0 0 1
2417 2 1.3692335818098876e+01 9.8398043335807959e+00 3.3142658975537387e+00 1 -1 -1
3736 2 1.5982964387924760e+01 8.9283246032885888e+00 1.0765556670202763e+00 0 1 0
3839 2 1.6471261079074996e+01 6.3565992027461231e+00 3.3380015350161427e+00 1 0 0
1273 2 1.6653456388307475e+01 9.2196573744162134e+00 4.1982958048515879e+00 0 -1 1
3558 2 1.4298930370520790e+01 7.3527691694819719e+00 5.3762229202866809e+00 0 1 -1
481 2 -3.0951682790877855e+00 -4.0369293933867505e+00 6.4695814615150802e+00 1 0 -1
2189 2 -4.1026128203661294e+00 -6.4720579644624321e-01 6.9605311222808286e+00 0 0 0
2746 2 -3.3524565575079328e+00 -6.1788277104036959e-01 1.0080920699242423e+01 1 1 0
1661 2 -2.4903047991064220e+00 -3.5887241383538750e+00 9.4632062861450166e+00 0 0 1
3810 2 -1.2594522088600617e+00 -1.4849983745894169e+00 7.6708741069165445e+00 1 0 1
2030 2 2.5401113909757989e-01 4.9663002833662784e-01 9.7277307790392129e+00 1 1 0
3389 2 1.6617754888010383e+00 -2.0657614630918872e+00 8.6762257757222176e+00 1 -1 0
2510 2 4.0447181383326765e+00 -5.9638316029184679e-03 7.3298887044300898e+00 0 2 1
1200 2 9.8257010340827744e-01 4.2037086770643395e-01 6.7208721603432462e+00 -1 0 1
3196 2 3.2624715398949089e+00 4.6011945575446767e-01 1.0160470356208851e+01 0 0 1
1643 2 4.1379378205759583e+00 -2.9232477261804384e+00 6.6818043463715124e+00 0 0 0
1886 2 4.4822657089062634e+00 -2.4153369992012879e+00 9.7967660643496277e+00 -1 1 1
1514 2 6.8726690546964857e+00 -9.3307096405005296e-01 8.3570673637766468e+00 0 0 1
184 1 6.7210693082163324e+00 -3.6181291137711131e+00 7.6854264146733353e+00 1 0 1
1965 2 9.1438095079886299e+00 -1.6099843085248327e+00 6.2148907089703176e+00 0 1 0
459 2 9.5235942489741046e+00 -3.9907321842837020e+00 8.3468238260861227e+00 0 1 1
1021 2 9.8192565805931356e+00 -1.2807405939683592e+00 9.4157196498406819e+00 0 1 0
3550 2 1.2048902574241538e+01 -2.2354091459388736e+00 7.1667916575360326e+00 2 2 1
1124 2 1.2762217032744633e+01 -1.8213322044389155e+00 1.0359432549711498e+01 1 -1 2
2270 2 1.4506639365895008e+01 -3.7901024231674851e-01 5.8513058205457487e+00 -1 1 0
2867 2 1.7868311522560457e+01 -3.4694072834579144e+00 8.9760036882145400e+00 0 0 -1
3835 2 1.7182328575127265e+01 -3.8231594869204528e+00 5.9222917649296498e+00 0 0 0
3346 2 1.4979136801367002e+01 -2.8156157300020332e+00 8.0978409954044253e+00 1 0 1
2695 2 1.3779989467330147e+01 2.1505232351050907e-01 8.5916819152191390e+00 1 1 1
1783 2 1.7418698518446924e+01 -9.3360411081200390e-01 6.7595678351731330e+00 -1 1 1
1248 2 1.6846606616219081e+01 -4.3020250391704895e-01 9.5544946101307762e+00 1 1 1
2555 2 -2.8179073703797024e+00 3.8192437295039952e+00 5.9282297423749544e+00 0 -1 0
1986 2 -2.1816711818297398e+00 1.5514275561714070e+00 8.3410343747790936e+00 1 1 0
3887 2 -2.5835190166676734e+00 4.4195383184569614e+00 9.2119622118106665e+00 0 1 1
3771 2 -5.6379646730756683e-02 3.4090807363463416e+00 7.1028714432149620e+00 0 0 0
2116 2 4.3841593938579582e-01 3.5773798689664309e+00 1.0209118575915008e+01 0 1 0
3504 2 2.6989874744459339e+00 2.7840466071526659e+00 8.1125342679148602e+00 1 0 -1
3267 2 4.5516167874291327e+00 5.2701486929377079e+00 9.3275010036582362e+00 1 1 0
3766 2 1.5843913410796047e+00 5.7094669208840152e+00 8.3674969480138301e+00 1 0 1
304 1 5.3024185519475715e+00 1.7198067017809411e+00 5.6761965028648724e+00 0 1 1
2024 2 4.9296809640269750e+00 4.2411405037913905e+00 6.5523928565221325e+00 1 1 1
3157 2 5.6665160008724946e+00 2.2625568347718970e+00 8.9755935188080525e+00 1 -1 0
1077 2 8.5541646747413740e+00 1.7749133658130214e+00 9.8567272338581411e+00 -1 2 0
2904 2 7.8957891369668598e+00 4.1730882395660647e+00 7.6913791896174750e+00 2 2 0
1582 2 7.8161604878149777e+00 1.3654621919753751e+00 6.7011097199960012e+00 1 0 -1
1096 2 7.3861514536275141e+00 5.2008366453676924e+00 1.0507499669423856e+01 1 0 1
886 2 1.0793273997246468e+01 7.9796561786915987e-01 7.6592363370732510e+00 0 1 1
2890 2 1.1010056041272163e+01 3.5256907238515938e+00 8.5721430290730911e+00 0 1 -1
1979 2 1.3182625923196003e+01 2.5728634028177915e+00 6.3097696725261656e+00 1 0 1
3961 2 1.1982459022155748e+01 5.6812340529941601e+00 6.8630018909778219e+00 0 2 1
2717 2 1.7598383299658522e+01 4.3633180841562567e+00 8.8160432915785538e+00 0 -1 -1
2709 2 1.4058398505521076e+01 3.0410035701200311e+00 9.4652198916756092e+00 1 1 -1
699 2 1.6113469317103053e+01 1.9887923303679269e+00 7.2178160525486721e+00 -1 0 0
1817 2 1.4921105666076102e+01 5.0405064782390507e+00 7.5081382119932840e+00 -1 1 0
356 1 1.6660197882975609e+01 2.1887732438305374e+00 1.0278995459171997e+01 2 1 0
188 1 -9.8828508356980427e-01 6.1576307760809819e+00 7.7848618135031433e+00 0 1 0
9 1 -1.3791596365306527e+00 1.0172699028321746e+01 9.1124008655974684e+00 -1 -2 -1
3042 2 -2.8424012016469438e+00 7.5110093193082257e+00 9.6289364205812742e+00 0 -2 1
1614 2 -3.4961550058197863e+00 6.8100570123355411e+00 6.6200115001281521e+00 1 0 1
143 1 -1.4898380341440673e+00 8.5841339816524318e+00 7.3249335891717919e+00 1 0 0
351 1 -4.4486424735808061e-01 6.4228742151121061e+00 1.0339285748357312e+01 -2 1 0
745 2 -3.7904035955197233e+00 1.0430850469356164e+01 1.0483062963532763e+01 0 1 1
3498 2 9.3771182079123427e-01 8.0553593798298824e+00 6.1896493516712656e+00 0 1 0
3296 2 1.2127382172445111e+00 8.6192729602803446e+00 9.2485446208105255e+00 2 -1 0
2692 2 3.8333730729309128e+00 7.6060952278877068e+00 7.2297828444434167e+00 0 0 0
3429 2 4.3645724764651597e+00 8.1505643182916181e+00 1.0246770235641483e+01 2 0 1
3714 2 5.9610955169328808e+00 9.5274521994728971e+00 5.6821152650182629e+00 1 0 0
2137 2 6.3905510925730074e+00 1.0390736442285924e+01 8.5660904891774408e+00 0 -1 -1
2688 2 6.7571255973975113e+00 7.2248921231480683e+00 8.2370098282229094e+00 0 0 2
2889 2 8.8579992884161776e+00 9.0170029310792081e+00 6.7860235240084688e+00 -1 0 1
2446 2 8.6432702704653419e+00 9.1970884763926897e+00 1.0003745619435300e+01 0 0 0
453 2 9.1167388444402171e+00 6.1370069151314368e+00 5.7683778874117451e+00 0 0 0
2755 2 9.7316848667199878e+00 6.5489086107855989e+00 8.9363367247296406e+00 0 1 -1
3487 2 1.1871977486738281e+01 8.5868989134702058e+00 7.6011588656739519e+00 1 0 -1
61 1 1.1357628944059767e+01 8.9735694733045115e+00 1.0368821750291431e+01 0 2 0
819 2 1.2577833873201520e+01 6.0550522952946473e+00 9.9478998729805710e+00 -1 -1 0
3583 2 1.4108717166978980e+01 1.0294507812426687e+01 6.2609425606515288e+00 0 1 -1
2873 2 1.7139136237242891e+01 9.7746321143100090e+00 7.1989507602637879e+00 1 0 2
1052 2 1.7229619977530760e+01 6.8319134949664715e+00 6.3436132078188869e+00 0 1 0
510 2 1.6455325389645271e+01 1.0287055373885595e+01 1.0032073038456906e+01 -1 1 0
3768 2 1.7874742986772855e+01 7.3415542583776361e+00 9.4029320987327409e+00 1 1 0
2911 2 -9.5142488162760497e-01 -5.7741775267998507e-01 1.3421135979158947e+01 1 1 0
1619 2 -2.9516770257130762e+00 -2.8520894361542943e+00 1.2377501530625015e+01 0 1 0
3040 2 -3.9572396978218225e+00 6.9628626248785963e-02 1.2980331513034724e+01 2 0 0
532 2 -1.6855796582213767e-01 -3.6542628999204330e+00 1.3553456600742088e+01 -1 0 0
51 1 -7.0370909505948820e-01 -1.8316109032364025e+00 1.0851284036733823e+01 -1 0 0
2658 2 -2.2959394761968022e+00 -2.4402378344666973e+00 1.5468465182658431e+01 1 0 0
3793 2 2.0560235103280897e+00 -1.7209588527693072e+00 1.1912396580978204e+01 1 0 0
2365 2 1.8077607321102924e+00 -9.0245050681938244e-01 1.4792870186280652e+01 0 0 -1
739 2 2.8058913798503653e+00 -3.8855230140740531e+00 1.4312279153605612e+01 -1 0 0
1590 2 4.0163115265728280e+00 6.6450877101645744e-01 1.3243052548416856e+01 0 -1 0
904 2 5.1863912025030086e+00 -2.2805420102552536e+00 1.2975920616058872e+01 0 0 0
2389 2 8.2402918298619365e+00 -3.0223100042322804e+00 1.3839038150119300e+01 0 -1 1
2089 2 6.8769182089183740e+00 6.1190684767647774e-02 1.4289436358465526e+01 0 1 0
2065 2 6.2461673700475551e+00 -7.8786216800510012e-02 1.1138616591434110e+01 0 0 1
705 2 7.4543333273099250e+00 -3.0291080507006276e+00 1.0684709962797534e+01 -2 0 1
3915 2 9.1501207330219287e+00 -6.5049988593733055e-01 1.2144264724357541e+01 0 1 -1
3700 2 1.0365717558601535e+01 -3.7084280223832091e+00 1.1585403120679599e+01 0 0 0
1344 2 1.2045336300585674e+01 -1.2793280801179230e+00 1.3104247496176800e+01 -1 1 0
315 1 1.0966040855235354e+01 -3.1333017535260215e+00 1.4601621245673901e+01 0 1 1
1360 2 9.7321341983730303e+00 -4.0781726002176732e-01 1.5259898215138367e+01 1 0 0
2496 2 1.8037609707315777e+01 1.9189772614556375e+00 2.1654845369707363e+01 -1 0 1
1016 2 1.5015045074561037e+01 -1.7437222955871428e+00 1.3996392236222313e+01 -2 1 1
1259 2 1.7261764177181625e+01 1.2241280331030246e-01 1.2713656291278401e+01 -1 1 0
998 2 1.5704405845003926e+01 -2.5232973047895979e+00 1.1261295965312918e+01 -1 0 -1
3169 2 1.4382669534993475e+01 5.9679524675781881e-01 1.1735230919267305e+01 1 0 0
1007 2 1.3678738052845681e+01 8.4161883818836003e+00 2.5000292636259736e+01 0 1 0
3494 2 -3.9978331240109508e+00 3.0400134972949013e+00 1.3799209882710620e+01 1 1 -1
2235 2 -1.7720642839837910e+00 1.8886374066419265e+00 1.1586197224906785e+01 1 1 2
3410 2 -1.0801883658368809e+00 2.3075225831394039e+00 1.4752930726930650e+01 0 -1 1
3690 2 -1.7706947795352450e+00 4.8832783181276174e+00 1.2196437560923997e+01 2 1 0
2797 2 -2.1336789767792168e+00 5.3744857655127323e+00 1.5182842577422743e+01 1 0 0
1669 2 1.0384359013852720e+00 4.2543971008603663e+00 1.3403931414356332e+01 0 -1 0
2063 2 3.3683598075232482e+00 3.3429859106532884e+00 1.1284792477577112e+01 1 0 1
3343 2 4.0979801777051268e+00 3.6985103463825046e+00 1.4222155625830361e+01 -1 0 2
846 2 1.1707712240262955e+00 1.3361974212186087e+00 1.2532777352087418e+01 -1 1 -1
1005 2 6.2990896354134840e+00 2.7893240391451704e+00 1.2134509731989162e+01 -2 1 -1
2883 2 7.8674291702448826e+00 5.0850284938915280e+00 1.3541545016962313e+01 0 0 -1
744 2 6.8100892139053126e+00 2.9855302347569950e+00 1.5525882030043338e+01 -1 -1 0
2363 2 9.1342494866470876e+00 2.1084308096098079e+00 1.3207258192150555e+01 1 1 0
2799 2 1.0164968866456428e+01 4.2205671574563386e+00 1.1251363860233235e+01 2 0 1
1067 2 1.2029858791636816e+01 1.5461551647911840e+00 1.4044273645031403e+01 -1 1 0
2421 2 1.0853303160134645e+01 4.6200526579118382e+00 1.4234326416951237e+01 1 1 2
2580 2 1.3147882123380256e+01 3.6579513944615885e+00 1.2169986177621468e+01 1 -1 0
3761 2 1.1500821070055466e+01 1.2033841296306722e+00 1.0814207851268327e+01 1 -1 0
3122 2 1.3732128326078179e+01 4.0259845524769364e+00 1.5266448054724737e+01 1 1 1
3211 2 1.4976009682293249e+01 1.1519479652431581e+00 1.4923997690710195e+01 0 0 0
3756 2 1.6105939071894422e+01 3.1169119664112452e+00 1.2811989526843188e+01 1 1 0
2294 2 1.5444983401649854e+01 5.6038991506016149e+00 1.0829650823283671e+01 0 0 0
2579 2 -3.1552335948304240e+00 7.6094041842344389e+00 1.2765555897910687e+01 1 0 1
2816 2 -8.7122329798366316e-02 7.1492241676709511e+00 1.3652643351522798e+01 0 -1 -1
2445 2 -8.6725491816622968e-01 9.1812038234356947e+00 1.1583172715978849e+01 2 1 1
1320 2 -5.0834113081090315e-01 1.0146895576849811e+01 1.4505689246391462e+01 1 0 0
2613 2 -3.5081794032691751e+00 1.0536525428275741e+01 1.3503554619156493e+01 1 -2 -1
3430 2 2.7793966285272838e+00 6.6114547462802502e+00 1.4774701224774965e+01 0 1 0
3713 2 2.0868146567024848e+00 6.2827208761602424e+00 1.1459214611835502e+01 0 1 1
719 2 2.1536355670030902e+00 9.2008611668185143e+00 1.2307125210492639e+01 -1 0 1
167 1 2.1661337195334189e+00 9.5019742166025214e+00 1.5041979212077575e+01 2 0 1
254 1 4.6498957211556196e+00 8.6374584956560803e+00 1.3532308433710472e+01 0 0 0
2850 2 5.0238605168024630e+00 6.0163945391819098e+00 1.2499121858685086e+01 0 0 -1
3427 2 7.5730057910811279e+00 8.0478354200006077e+00 1.4384460311596708e+01 0 0 -1
1890 2 6.0140948106936385e+00 1.0315668786977740e+01 1.1680421932762100e+01 1 0 0
204 1 7.1654734263241959e+00 7.7139013509540959e+00 1.1736288822998830e+01 1 0 -1
1403 2 9.0169318346653444e+00 1.0250335897304868e+01 1.2828494559317736e+01 -1 0 1
471 2 1.0055464660446674e+01 7.1109327655966883e+00 1.2144492292931488e+01 0 1 -1
2693 2 1.3085675568959569e+01 6.5466302277559940e+00 1.3200953568552190e+01 0 1 0
3628 2 1.1942569275909673e+01 9.5603601297819143e+00 1.3330141197016761e+01 1 1 0
3460 2 1.0785093688679808e+01 7.5060598578932272e+00 1.5154208232308598e+01 2 0 1
1840 2 1.6032036113440352e+01 5.8649964565400072e+00 1.4068108258737070e+01 -2 1 1
1579 2 1.4036891101550783e+01 8.5369167665252235e+00 1.1245260343957460e+01 0 0 0
437 2 1.4854311073962663e+01 8.8840022718171436e+00 1.4376102928480012e+01 0 -1 0
2299 2 1.7028845003284310e+01 7.9948982453959676e+00 1.2205386768271271e+01 -1 -1 0
2478 2 1.7821387712803737e+01 8.5227879238969244e+00 1.5216737589144248e+01 -1 0 2
3210 2 -1.8451649946160833e+00 -2.2138377127005118e+00 1.8539362655283618e+01 0 1 1
1799 2 -3.5931479730045712e-01 1.1523597321958068e-01 1.7006875337098222e+01 0 -1 0
2136 2 -3.9600136501286309e+00 -3.9560083026712372e+00 2.0103919041163707e+01 -1 1 0
2080 2 -3.3939226205204833e+00 4.9300076046241603e-01 1.5966738994019792e+01 0 2 1
113 1 4.5154874462887449e+00 -1.7760959990430112e+00 1.5721416699385056e+01 -1 1 0
2728 2 3.5719913438787367e+00 -3.8616390432381107e+00 1.7354680517033433e+01 1 0 0
2863 2 6.2922623230964358e-01 -2.9630633278489285e+00 1.6596520338851569e+01 0 1 -1
1940 2 7.2062891252702599e-01 -1.9497592376800461e+00 1.9708179343434399e+01 0 1 1
2720 2 2.5683120114238394e+00 -6.9556545699630323e-01 1.7837389480141109e+01 0 1 0
2662 2 3.5061538435153858e+00 -3.0560845169701145e+00 2.0326872736769797e+01 1 0 0
1957 2 5.3993026947140432e+00 -1.0893285615983830e+00 1.8823112424960506e+01 0 1 0
3083 2 7.3290627931759253e+00 -2.1537862241628969e+00 1.6536472480855039e+01 -1 1 0
738 2 8.3413957744913798e+00 -1.6879194091580612e+00 1.9603627365009157e+01 0 1 -1
1111 2 6.3780041434157937e+00 -4.0199774217716815e+00 1.8680512161433729e+01 0 0 -1
1510 2 1.0582470300058421e+01 2.3987186753405165e-01 1.8353133009142827e+01 -1 -1 0
1118 2 1.0543958349518769e+01 -2.6715707566833506e+00 1.7268046547522601e+01 -1 -1 -1
3992 2 1.2736877498539041e+01 -8.5203971450113158e-01 1.6137768406458484e+01 0 1 0
2329 2 1.3362515343541954e+01 -3.0474655061316565e+00 1.8482092634268412e+01 1 1 0
3088 2 1.1227027616142916e+01 -2.0219842426777661e+00 2.0538211742209921e+01 1 0 -1
1223 2 1.3761691270847198e+01 -3.9537678746604428e+00 1.5645520834466570e+01 0 1 0
500 2 1.3712526338471598e+01 -1.3691405634676457e-01 1.9082191974337714e+01 0 2 1
3890 2 1.6284033182235166e+01 -3.1796841702274214e+00 1.9468338997718661e+01 0 1 -1
1938 2 1.5676499218683819e+01 -1.3352828936644152e+00 1.6991551149275335e+01 -1 0 0
1642 2 1.7966054821541189e+01 5.2295049264468219e-01 1.5810360962049504e+01 0 1 0
298 1 -1.0145448672006641e-01 7.4346886064493312e-01 1.9971179836138393e+01 0 1 2
2848 2 -2.7587727400044351e+00 8.9629002894794318e-01 1.9085428443617399e+01 -1 1 -1
1549 2 -3.2180708454981994e+00 3.2350244402356774e+00 1.6911609738242024e+01 1 0 0
2352 2 -3.8293158261552569e+00 3.9121811212793283e+00 1.9706215169711250e+01 1 0 -1
395 1 -7.0657520172428701e-01 2.7737340172919023e+00 1.7987958597639068e+01 0 2 1
3652 2 -1.6310128819243452e+00 5.6101861009422684e+00 1.8296629302668940e+01 0 1 -1
2506 2 1.8776837134105184e+00 1.9547620256555058e+00 1.5695467880350442e+01 0 0 -1
446 2 1.8813345703196225e+00 2.2542533074360769e+00 1.8785490140833375e+01 0 0 0
3181 2 3.7867326223990752e+00 4.1232997607995561e+00 1.7121527341463164e+01 1 1 1
2687 2 6.9040010279056396e-01 4.6452895908543628e+00 1.6399495442279914e+01 1 -1 0
3000 2 3.6625353983968489e+00 4.5631605075695241e+00 2.0227230637771189e+01 1 0 -1
270 1 9.0859447198449228e-01 4.9888721239055887e+00 1.9114161642580360e+01 1 0 -2
2706 2 4.6573424441823548e+00 9.3938519647282437e-01 1.6335327583782760e+01 1 0 0
444 2 7.5381680183336375e+00 7.4449460941180856e-01 1.7504988897465456e+01 -2 1 1
2286 2 4.9634413904117860e+00 1.9510867866040336e+00 1.9205002988963642e+01 0 -1 0
244 1 6.4933172206254799e+00 4.1859154897663871e+00 1.8071517571902223e+01 0 2 -1
406 2 8.9743014050508041e+00 3.0086603894844295e+00 1.8883390805208865e+01 0 -1 -1
2641 2 8.6238050970410729e+00 5.5847461278749595e+00 1.6473286944700455e+01 0 0 -1
1268 2 9.9441748041519809e+00 2.5133503799905998e+00 1.6191881626528165e+01 0 0 -1
6 1 1.2633989733336922e+01 1.9442917782201112e+00 1.6976320332320704e+01 0 -1 0
1029 2 1.2108580350127799e+01 2.5601467752392892e+00 1.9742357852539069e+01 0 0 0
1795 2 1.1415367778035113e+01 4.8573789910783969e+00 1.7522211873723588e+01 1 0 0
1487 2 1.7325225959397159e+01 8.8521228220671944e-01 1.8707569537589961e+01 -1 0 -1
132 1 1.5038089430635232e+01 1.8224040589013146e+00 1.7638191829660169e+01 0 0 0
805 2 1.4367608939116945e+01 4.3993040040743434e+00 1.8296011473898087e+01 1 -1 -2
2444 2 1.6758549773476378e+01 3.4964493289450056e+00 1.6096834818551404e+01 0 1 0
2377 2 1.7249339527609951e+01 3.9164831749457125e+00 1.9211806849371232e+01 1 2 1
3101 2 -2.7579076883436757e+00 8.3044632116525712e+00 1.5809961387559142e+01 1 0 -1
18 1 -2.4768914854477138e+00 8.1700196590692205e+00 1.8708795476236666e+01 -1 0 0
3077 2 -1.1299821776885262e+00 1.0508550024330409e+01 1.7614141405228864e+01 1 0 1
693 2 1.7563657889801387e-01 7.6649371080640609e+00 1.6609615510275116e+01 -1 1 0
587 2 2.8297824384802439e-01 8.0671833915034199e+00 1.9734828182014557e+01 0 0 0
1917 2 2.7527842063129162e+00 6.8716705553605166e+00 1.8096258318413859e+01 0 0 0
1681 2 1.8844960699929088e+00 9.8272378813402863e+00 1.7824168486373487e+01 0 -1 0
917 2 4.6787282582404348e+00 8.8480271157516075e+00 1.6231852843594798e+01 0 1 1
1135 2 5.7137673655044754e+00 6.0583845552246274e+00 1.5675590955676821e+01 0 -1 1
2944 2 4.8912054899085842e+00 9.5989591152005680e+00 1.9206189336275894e+01 0 0 0
1444 2 5.6603622169266341e+00 6.6263307892588994e+00 1.8827473781625045e+01 1 1 0