LAMMPS data file via write_data, version 3 Mar 2020, timestep = 1799500

4000 atoms
2 atom types

-2.6499641799189355e+00 3.8749964179916617e+01 xlo xhi
-2.6499641799189355e+00 3.8749964179916617e+01 ylo yhi
-2.6499641799189355e+00 3.8749964179916617e+01 zlo zhi

Masses

1 63.546
2 91.224

Atoms # atomic

429 1 -1.1001396059545012e+00 9.0364192361830131e-02 -8.6700382624546002e-01 1 1 0
3826 2 1.6072127148213733e+00 8.9041070973648440e-01 -1.0802204931974335e+00 2 -1 2
1944 1 4.7727423477784825e-01 -1.5142610978692570e+00 3.1078259746201198e-01 1 2 0
1230 1 1.6935934118690188e+00 2.9431527985611794e-01 1.4624398298812160e+00 1 0 0
2665 2 -2.2059664329232924e+00 -2.2495193028159384e+00 7.5658958178204117e-04 -1 0 1
2910 2 -1.1487169494994278e+00 2.1880335567235409e-01 2.0537046341597343e+00 0 1 0
1485 1 -9.4693035170963236e-01 -2.6284158484413829e+00 2.2583178336699721e+00 0 1 0
2384 2 2.8912563661107180e+00 -2.2352251985405971e+00 -1.0882775833626641e+00 0 0 0
3821 2 4.9119943871132241e+00 1.7980371923825045e-01 -1.9774575306344055e+00 0 -1 1
1877 1 4.2711731038313117e+00 -1.3722505715423283e-01 6.5245522148329638e-01 0 1 -1
1696 1 5.4317886469103147e+00 -2.2058805180905612e+00 -2.2125182023624568e-02 0 1 1
2988 2 7.3353410381694477e+00 -3.9770888696150486e-01 2.8736157867271528e-01 1 1 0
662 1 3.0194215645897620e+00 -2.0229553265550084e+00 1.5816055802322193e+00 0 0 1
1707 1 5.8068018331118747e+00 1.0658251303302153e+00 2.3026015137917888e+00 1 0 2
1506 1 7.6008890293737714e+00 6.0768962547425831e-01 -2.2812801279777619e+00 0 0 0
3598 2 1.0914580725034892e+01 8.1023129047669062e-02 3.4921474511722783e-01 0 1 0
1125 1 9.1950971749658077e+00 -1.3669613029821579e+00 -1.5514243984180203e+00 1 0 1
466 1 9.3995671219615193e+00 -2.0079230269066910e+00 1.1520796656890533e+00 -1 0 1
516 1 1.2433004900510062e+01 -3.2578690832578960e-01 -1.8123278420296147e+00 1 1 -1
3980 2 1.4036909815266913e+01 -1.3568771413147598e+00 1.0870387145095561e-01 0 1 0
3599 2 1.7277818347101764e+01 -4.5915472970354410e-01 7.3321696189684538e-01 1 1 -1
1956 1 1.3550904581618898e+01 1.3970628081734739e+00 1.8862590985607852e-01 0 1 0
41 1 1.5258864736051507e+01 8.1405399613617968e-01 1.9122771601475135e+00 -1 1 1
1853 1 1.5998501968596123e+01 -1.2542586919373073e+00 -1.8985253662914123e+00 1 0 1
2262 2 1.7944689728503921e+01 6.5314577707807508e-01 -2.2705248955914574e+00 1 1 0
1835 1 1.5381833835194804e+01 -1.9268116324732887e+00 2.4039790282134934e+00 0 1 -1
2734 2 1.4721185364339654e+01 1.2065820838724237e+00 -2.5108840356969599e+00 0 1 0
472 1 1.6142229574563405e+01 1.8853608219307683e+00 -3.2488795553363348e-01 0 -1 1
1487 1 -2.3649603092723037e+00 1.9752956907055328e+00 4.9059278718720023e-01 0 0 2
281 1 3.7415958985479092e-01 2.4180612282988569e+00 8.3087111770813138e-01 -1 0 0
3824 2 -9.4846195115782828e-01 2.9084743669703617e+00 -1.5289103286503829e+00 1 0 1
2283 2 6.9588672575113941e-01 4.8819408498469805e+00 1.9373601751012393e+00 -1 2 0
2506 2 -3.7336738492469745e-01 5.8887893951224708e+00 -8.2955878869356869e-01 0 1 1
2484 2 1.9542353256495284e+00 4.1445415413491533e+00 -9.9722920433233653e-01 0 2 1
2839 2 -2.4932304866623092e+00 4.7667790286315546e+00 9.7984452921522003e-01 1 0 0
1870 1 6.0995904018324492e+00 2.0675792832447542e+00 -2.3934327682537049e-01 1 -1 1
2092 2 3.5053240313587608e+00 2.3328015037458272e+00 9.5403234252261226e-01 0 0 0
384 1 3.4899717248246533e+00 4.8403636975705053e+00 1.6156068975504878e+00 0 1 0
2878 2 5.2974958938652259e+00 4.6811829701386722e+00 -7.3634726564220787e-01 0 1 1
1839 1 5.9731577237503455e+00 3.6289156987705029e+00 1.8253771085230515e+00 1 0 0
1602 1 3.7775011880923808e+00 2.5485272035656257e+00 -2.1299218468227497e+00 1 -2 1
1898 1 7.9690381888751265e+00 4.9327788015955205e+00 -1.5486937949616746e+00 2 1 0
3415 2 8.9579773902927080e+00 2.3756035761287757e+00 -5.7913933517507887e-01 1 0 1
3463 2 8.1772653834760760e+00 5.1226080580812523e+00 1.2128651191715218e+00 1 1 1
3116 2 1.1490265968394839e+01 2.9558123604558872e+00 1.4074243540672144e+00 0 0 0
2528 2 1.1949177240586764e+01 2.6465502531468683e+00 -1.6650752266693361e+00 0 1 0
1387 1 1.0436015157341677e+01 4.8605092598415487e+00 -8.7889852726065354e-01 -1 1 2
648 1 1.0712552894557543e+01 5.7010675051213706e+00 1.5494257761366050e+00 0 -2 0
2182 2 8.3779437012632503e+00 2.0580919245121256e+00 2.4125360245986611e+00 0 2 0
2156 2 1.3078944156718885e+01 5.8565435839021696e+00 -8.6875324912419671e-02 0 1 1
1760 1 1.5055556037639409e+01 5.7288106822171265e+00 -2.1666689685315093e+00 -1 0 0
1871 1 1.4492199876551197e+01 3.5717994592319506e+00 -1.1065479041994712e+00 0 0 2
2235 2 1.4735860859901816e+01 3.7692169307647436e+00 1.5634220552056686e+00 0 0 0
2124 2 1.6744573290076932e+01 5.0549043703387326e+00 -2.3174609477588248e-01 -1 1 0
3299 2 1.7792182563838900e+01 2.7837277472257007e+00 1.6771121800495070e+00 -1 0 0
3883 2 -1.8616425630037519e+00 1.0143108573075310e+01 8.1704044075923843e-01 0 1 1
588 1 -1.0412149074919119e-01 8.4901552549985730e+00 -5.6828416308672480e-01 2 2 -1
879 1 -8.2758155090748708e-01 7.3626862978754328e+00 1.5729124380211470e+00 2 -1 0
3913 2 1.4281378156613949e+00 9.3054262121051607e+00 1.4586904055567338e+00 2 0 0
2060 2 1.8546090045168748e+00 9.4883260674906715e+00 -2.0424054590098448e+00 1 -1 0
589 1 -9.1216872274424454e-01 1.0397073708681683e+01 -1.8878611217659438e+00 0 1 0
2359 2 2.5423271222081256e+00 6.9324571641875057e+00 -8.3767222002082420e-02 0 0 2
3426 2 5.3935074254105562e+00 6.8666509013021670e+00 1.4528375302953691e+00 -1 0 0
1005 1 4.5180481444706038e+00 6.9169714125203861e+00 -1.9157401697877254e+00 2 1 -1
3457 2 4.6055210057052394e+00 9.3009802520717706e+00 -4.1997889834878555e-01 1 0 0
2486 2 7.2454872972995723e+00 7.4542530619236711e+00 -7.7011629159001349e-01 -1 0 0
2234 2 6.6711070834077386e+00 1.0122870056014662e+01 2.0776732741383253e+00 0 -1 0
1865 1 4.0201442983770024e+00 8.9980997859914531e+00 2.3027895268706562e+00 2 -1 1
542 1 6.7564760058359532e+00 1.1059825965856080e+01 -2.3859043995190841e+00 0 0 0
918 1 7.9952077611963652e+00 9.9639032826797731e+00 -3.5908469206447080e-01 0 0 0
3320 2 9.9286827153574642e+00 1.0482631232154198e+01 1.4606074839092003e+00 0 2 0
1697 1 8.6238292566024981e+00 7.8679948480956163e+00 1.7913048392139617e+00 2 0 1
3369 2 1.0300534661306338e+01 7.6545787805910948e+00 -4.5252126660835712e-01 0 1 0
903 1 1.0734416208913299e+01 1.0351516656738996e+01 -1.1415437532724826e+00 0 1 1
3957 2 1.1829963751737800e+01 7.9575766266048440e+00 2.2795645867748107e+00 0 0 0
1990 1 1.1823265557886206e+01 8.6361692327856154e+00 -2.4856048845645198e+00 0 1 0
859 1 1.4562993357468475e+01 6.7388345811562385e+00 1.9953181855933302e+00 -1 1 1
3072 2 1.3074600745029796e+01 1.0796357983732713e+01 2.2168099946416779e+00 0 0 0
1920 1 1.3275113391672592e+01 1.0867880850943603e+01 -2.2540216010737697e+00 0 -1 0
3952 2 1.3153879913734754e+01 9.1720935071910681e+00 -1.2791553960072077e-01 1 0 0
212 1 1.5776248682082713e+01 1.0033023028390016e+01 -7.6028457906984159e-01 1 0 2
620 1 1.5543257376348226e+01 7.5059887708780089e+00 -3.0853781327579766e-01 0 0 1
2687 2 1.5994756101390305e+01 9.0879018860125189e+00 1.9485001481344408e+00 -1 -1 2
2762 2 1.7683774160959459e+01 7.1086538071609464e+00 -2.5135244631253326e+00 1 2 1
3476 2 2.1440817285329938e-01 4.6905682474877075e-01 5.9533241094675855e+00 0 1 0
3239 2 1.1557137124981467e+00 -1.3667523276232969e+00 3.4408602073479386e+00 0 0 -1
893 1 -1.5306313925944914e+00 -1.3076428522805617e+00 4.5287286210733342e+00 0 0 0
1030 1 -2.1079685963302977e+00 1.2408627724991192e+00 4.4724271320883116e+00 1 0 0
1073 1 -2.4507780207782424e+00 -1.8556364983216778e-02 6.5960793270085745e+00 0 1 0
229 1 2.7236862783942488e+00 -7.6227092884997805e-01 5.5032769353551849e+00 0 0 -1
2123 2 4.9672392599126081e+00 -9.3525056304285004e-01 6.9574875856938370e+00 0 1 0
541 1 3.4496563728573593e+00 4.6591512746739872e-01 3.2908981363215259e+00 0 1 0
3540 2 5.1623312404502482e+00 -1.5730512614137409e+00 3.1519313305216192e+00 0 1 1
1782 1 5.4361710558327001e+00 5.9588093574243084e-01 4.8189256932577669e+00 2 0 0
250 1 7.0495631801906526e+00 -1.7676658665872911e+00 5.5279857408939197e+00 1 1 0
1300 1 7.6090394750695154e+00 -6.2742703753788476e-01 3.0385053441608605e+00 0 0 1
1079 1 1.0119220270863517e+01 -1.1643091263154082e-01 2.9684128281406750e+00 2 -2 2
860 1 9.2913339694692159e+00 -1.7034534000536543e+00 6.6544457278994429e+00 -1 1 0
3746 2 8.2895463645035861e+00 7.1059292591431023e-01 5.2767746107362621e+00 1 0 -1
1505 1 1.1168734812024070e+01 -6.4830301622455888e-01 5.2282226559058387e+00 -1 1 0
2075 2 1.0363582743279327e+01 1.5300461585465062e+00 7.5000290963452514e+00 0 0 1
3569 2 9.2437709049374952e+00 -2.5913519336527306e+00 3.9274530248270789e+00 -1 2 0
1818 1 1.1519221261477295e+01 -1.0728239708968876e+00 7.6949298221711864e+00 1 1 0
1947 1 1.8038108509620258e+01 -2.0389959965416784e+00 5.8318476174163560e+00 0 1 0
2135 2 1.2890993928689948e+01 -7.0003830627656249e-02 3.0254620221960575e+00 0 1 1
942 1 1.7828679800804782e+01 -1.2293318782251541e+00 3.2593061570144348e+00 -1 0 1
743 1 1.3688058692701819e+01 -1.6988069412316618e+00 6.6507054761943252e+00 0 0 1
2645 2 1.3220478998856636e+01 9.3899468263105668e-01 6.4436384745917010e+00 1 1 1
2837 2 1.5632001906564579e+01 -6.4750110914216963e-01 4.9476601092676358e+00 1 1 0
1620 1 1.6994394485711144e+01 1.3381455027123996e+00 3.7081982287901738e+00 0 1 0
1926 1 1.3775710315982732e+01 -2.5768299671044579e+00 4.4040336749163584e+00 0 0 1
2612 2 1.6373072735698031e+01 1.9700534527307791e+00 6.4566269781072947e+00 0 0 1
3875 2 1.2359283401677770e+00 2.0674909997998476e+00 3.4669696757133943e+00 1 -1 0
1576 1 -1.3750667595151231e+00 2.9546367383930017e+00 2.7290127133794595e+00 2 1 -1
1312 1 -2.0061352491173690e+00 4.3444338914583973e+00 7.2883191894979493e+00 -1 0 0
702 1 7.4013527825424585e-02 6.1168443834608741e+00 7.1021623072098290e+00 1 0 0
1996 1 2.1082317467968874e+00 4.6061813868084052e+00 7.0317779203197119e+00 2 0 0
3335 2 -5.3602583324088293e-02 3.8399693011273079e+00 5.4827770751166938e+00 1 1 0
925 1 -1.6353561431771120e+00 5.6293445437719569e+00 3.4018460698421000e+00 -1 0 1
741 1 -1.2013433712431305e+00 2.0109894795425953e+00 7.6958756675314675e+00 1 1 -1
3489 2 3.1678805862243795e+00 2.0387376953151444e+00 5.9522675883804386e+00 0 1 0
2078 2 2.6239225406887599e+00 4.8549754705602490e+00 4.3859129232914631e+00 1 0 0
2089 2 6.0789194786118426e+00 2.2019439487753738e+00 7.2505304986019414e+00 1 0 0
806 1 4.1855480771591269e+00 2.8332095400950523e+00 3.5384177055589960e+00 1 0 0
458 1 6.4397473134044247e+00 2.8904723204473921e+00 4.4769960434899803e+00 0 0 2
3127 2 5.0094258194648891e+00 5.0428282708938141e+00 6.2817211406348239e+00 1 1 0
364 1 5.1760038579687748e+00 5.2280832452144788e+00 3.5060789229269309e+00 0 1 0
915 1 7.4548403563552110e+00 6.3082633057325292e+00 6.2471662540992448e+00 1 1 -1
1018 1 7.5742894142059463e+00 5.0701677182907199e+00 3.9361570658686542e+00 1 0 -1
3874 2 1.1136653577247417e+01 2.1184702776168738e+00 4.5183914965158669e+00 1 1 1
1529 1 9.8607603247528104e+00 4.1776416294520029e+00 3.4299683261139347e+00 0 -1 1
2366 2 8.5797436497641009e+00 3.7708242465725128e+00 6.0923584512376525e+00 -1 1 -1
989 1 1.1083738456666904e+01 4.5927125405994262e+00 5.9553478913032247e+00 0 1 1
1985 1 9.6087306068922107e+00 6.3624660389569936e+00 7.2634378178443821e+00 1 -1 0
3664 2 1.2558660640890388e+01 5.0385765210597482e+00 3.3764700750182230e+00 0 0 -1
3963 2 1.7363607276687862e+01 5.9820845088394350e+00 2.6600466499901572e+00 1 0 1
3958 2 1.4200491335316272e+01 2.3305780576687969e+00 4.0728731471532527e+00 1 0 0
3402 2 1.3785761878510058e+01 4.1486860383951285e+00 6.4759977264411734e+00 1 -1 0
555 1 1.6319452685186025e+01 3.8164369437286760e+00 3.9623785024288747e+00 -1 1 0
2385 2 1.6828926926600293e+01 5.1485038887757586e+00 6.2235956898237212e+00 -1 0 0
1193 1 1.4939519233812437e+01 5.9744803915243452e+00 4.3191258115179885e+00 -1 1 -2
3981 2 -2.3172986989268902e+00 6.8588632051019065e+00 6.0128006065278097e+00 0 2 0
51 1 1.5711104113552938e+00 1.0139054615483239e+01 7.4142864283923160e+00 -1 -1 0
3191 2 4.2175095843247945e-01 7.0156379679641283e+00 4.2684479351075915e+00 1 1 1
3888 2 -1.3159519395884274e+00 9.4860646051743576e+00 3.8551490843287839e+00 0 1 1
70 1 -1.0021997519864323e-01 8.7313513189724858e+00 6.2587282078122737e+00 -1 0 0
2617 2 2.0662937651072042e+00 9.7115580549127802e+00 4.4373889173765617e+00 0 0 1
1281 1 -2.2021474449024070e+00 1.0056245194506909e+01 7.2647797789988200e+00 0 0 1
2301 2 2.4527386382625984e+00 7.5865522289787908e+00 6.8354605931896231e+00 0 1 1
1563 1 2.5682856988115930e+00 7.0276954702732564e+00 2.6359093773022977e+00 2 0 1
2206 2 5.5620937140766866e+00 8.2925348443405191e+00 6.7692157991502704e+00 -1 0 0
1778 1 5.0254284452509967e+00 9.7714112443952086e+00 4.2902430228722190e+00 2 1 -1
3576 2 6.7510177021059956e+00 7.6613914741934792e+00 4.0041863671320961e+00 0 -1 0
1941 1 4.0101244733140016e+00 7.3295995498456445e+00 4.6085135264598458e+00 1 0 1
3484 2 7.3683860465732387e+00 1.0684693163901613e+01 5.6448358429861027e+00 0 0 0
3568 2 4.0528325503185174e+00 1.1142073476964221e+01 6.3368197727489957e+00 1 1 -1
2054 2 9.7943267930607103e+00 6.7536699856296707e+00 4.3389670683848944e+00 0 0 1
2393 2 1.1173357197431743e+01 8.6799626779418162e+00 7.0155952778705366e+00 0 1 1
1513 1 1.2419334794511851e+01 6.7088865229228425e+00 5.3973713758701187e+00 2 0 3
1157 1 8.9167357747850300e+00 9.4502878264533496e+00 3.8050165291734679e+00 1 0 0
336 1 8.6148565495087723e+00 8.5164422138997899e+00 6.2144140114115469e+00 0 1 -1
661 1 1.1292680477038038e+01 9.7244097746159408e+00 4.2437391299553955e+00 1 -1 0
1131 1 1.7945174306695574e+01 1.0047104379749232e+01 -2.0882558452161346e+00 -1 0 0
3062 2 1.6469441288546971e+01 1.0426155277348196e+01 6.2052061026196643e+00 0 0 -1
1102 1 1.7536213114687865e+01 7.7471232411443953e+00 7.0808876459304049e+00 0 1 1
572 1 1.6728552630888718e+01 7.9845469709873296e+00 4.6664107348383101e+00 -1 1 1
725 1 1.7504203575963231e+01 1.0795032847910260e+01 3.6540538756212007e+00 0 -1 1
587 1 1.3680715061946920e+01 9.7057231008845672e+00 7.1301253441597350e+00 2 1 -1
3905 2 1.4750959692236155e+01 7.2868368109399135e+00 6.8682321031360836e+00 1 -1 0
3377 2 1.3964925416491067e+01 8.6504408775516843e+00 4.3647464886975369e+00 1 0 0
416 1 1.5128211057270398e+01 1.1148241575095037e+01 3.9117670288171649e+00 0 0 1
2122 2 5.5982308268966241e-01 -2.6049151500852190e+00 6.1348977969266674e+00 -1 0 1
3559 2 1.8378714274780350e+00 -3.8825493641139985e-01 8.5944294054426305e+00 1 0 0
3588 2 -3.9719580475643301e-01 9.9810948617565609e-01 1.0615831887859246e+01 2 2 0
2225 2 -9.4144098448065505e-01 -1.4953204736335006e+00 8.7491059053283422e+00 -1 0 0
1539 1 1.8360332430128459e+00 -2.0879190194357999e-01 1.1993348773720655e+01 1 2 2
2250 2 -2.4405282669242587e+00 -1.3034630584444886e+00 1.1690465389693063e+01 1 1 2
3683 2 4.5659235934576214e-01 -2.5064400551464296e+00 1.1371542619464964e+01 1 1 1
1719 1 -2.0728400565234857e+00 1.2810809690229403e+00 1.2891176243347459e+01 1 1 1
3898 2 4.2071132576007590e+00 7.9650116368806945e-01 1.1369216635707133e+01 -1 1 -1
1915 1 5.8538614972720175e+00 1.5600909062666446e-01 9.2611964143971228e+00 1 0 0
788 1 6.1507607198401626e+00 -1.1565487676648991e+00 1.1377518620402023e+01 0 -1 1
1752 1 3.8690113913443254e+00 1.3133367318834535e+00 8.6723875852221983e+00 2 1 0
3439 2 3.8777280397531753e+00 -1.9718310393431921e+00 9.9443135182179514e+00 1 1 1
3427 2 7.1762081757243834e+00 -2.3442201506110050e+00 9.0212085281868468e+00 1 0 1
570 1 4.0218313359503952e+00 -1.6192785997151031e+00 1.2658317965573252e+01 1 0 -1
3043 2 7.9971760337464506e+00 7.1116083458255730e-01 1.1076748937351564e+01 1 1 1
591 1 9.8795938606215632e+00 -4.6113067737920854e-01 9.6153322308925659e+00 0 1 0
3610 2 8.9381928097090899e+00 -2.0702011900588069e+00 1.1985325908268692e+01 0 0 0
459 1 1.1537056308477904e+01 -1.7732735116620111e+00 1.0956467949613423e+01 0 1 -1
2314 2 1.1135141361926175e+01 5.6848831417719392e-01 1.2416030484592383e+01 1 1 0
3044 2 1.2695322608268127e+01 4.4799920515864100e-01 9.5756580731456218e+00 1 0 -1
1034 1 7.9340928209360690e+00 3.5452195395281105e-02 7.9344677543090665e+00 1 1 0
1682 1 1.5893936809221540e+01 -1.0192925765398788e+00 1.0081583498523733e+01 2 0 1
152 1 1.4720850309315590e+01 1.3376822074345940e+00 1.1054462792224980e+01 1 2 0
3547 2 1.4022305859728490e+01 -1.0667393676187333e+00 1.2083431246591561e+01 1 2 -1
3688 2 1.7179832293140478e+01 1.6165312456261347e+00 1.0166304383938662e+01 1 0 0
1652 1 1.6441457152371285e+01 1.1356345271915069e-01 1.2497643958517905e+01 -1 1 1
151 1 1.5224335291901500e+01 -1.6788894462199000e-01 7.9346148857672620e+00 0 1 0
386 1 1.9926613663438051e+00 2.2741762482827035e+00 1.0565855677670626e+01 0 1 -1
2192 2 5.1981631702040065e-02 4.1989917741008327e+00 9.1435864742222925e+00 0 1 0
2912 2 -1.3087125990181345e+00 3.8761795766900153e+00 1.2101625361265416e+01 -1 1 0
3433 2 1.9697304261276960e+00 5.0352476773646826e+00 1.1491697437757123e+01 1 0 0
823 1 1.9080079646906185e+00 6.0389909703106657e+00 8.9893776851893250e+00 0 0 1
907 1 -2.3159752143550025e+00 2.9917016691200287e+00 9.7250887767336032e+00 1 -1 1
1931 1 1.4073323737738344e+00 2.2765305560361435e+00 8.0241826182668099e+00 1 1 2
1366 1 5.9637129112635971e+00 2.5722757457808489e+00 1.0171376283070625e+01 0 1 1
2933 2 3.7852075885096035e+00 3.9858845282063680e+00 9.0086432540735952e+00 0 1 -1
2784 2 5.4612265803735962e+00 4.9882979798422742e+00 1.1555465660939639e+01 0 0 1
2696 2 6.9483607518847510e+00 5.0174429367166189e+00 8.7428398844587534e+00 0 1 0
137 1 3.6780476580174311e+00 3.1123428441689249e+00 1.2534053825296132e+01 0 1 -1
737 1 1.0323464726070910e+01 2.0635748054066880e+00 1.0298859296056552e+01 1 1 0
634 1 8.2156159073075301e+00 2.4419588195175388e+00 8.8058566675624199e+00 1 0 1
1523 1 8.0945790973372134e+00 3.5115939025529963e+00 1.1120932167355264e+01 -1 0 -2
2371 2 1.0054823943635769e+01 4.4949512447094859e+00 9.1438632991824527e+00 -1 1 -1
277 1 1.2405293773071618e+01 5.2167012432481732e+00 1.0565997895598914e+01 -2 -1 1
2954 2 1.0402660083701054e+01 4.1197124277813444e+00 1.2460861308851287e+01 0 0 0
988 1 1.2562277840447477e+01 2.7325325112548260e+00 1.1388547996886333e+01 -1 1 1
869 1 1.2421963479333197e+01 3.2653952677596232e+00 8.8498678203963532e+00 0 0 -1
3098 2 8.4555243210785296e+00 6.3999150524838626e+00 1.1277354167716942e+01 1 -1 1
157 1 1.2100223032531506e+01 6.0314916928606550e+00 7.7842228360745374e+00 0 1 1
713 1 1.4669397198164944e+01 2.2419465728221599e+00 8.6249166534056592e+00 1 2 0
895 1 1.4222114727586817e+01 5.4243334459761741e+00 8.8390907900952875e+00 1 1 -1
1338 1 1.6366338314384105e+01 4.0157544145738528e+00 8.6657702773720668e+00 0 2 1
3696 2 1.4951452940922046e+01 3.9973128073278579e+00 1.0992263395651271e+01 0 -1 1
2198 2 1.3990063541338788e+01 7.8727715436927834e+00 1.4229302935367752e+01 -1 1 0
3423 2 -7.7518401441643836e-01 6.6500168219834865e+00 1.1292735315897209e+01 2 -1 0
1822 1 2.1395715388130014e+00 1.1060336422850947e+01 1.0048109024433241e+01 0 -1 0
2622 2 -1.1085681671796879e+00 8.1306151015509336e+00 8.7901198593447951e+00 0 -1 1
2364 2 1.7255976869223026e+00 8.4126186786445523e+00 1.0021528541503493e+01 0 1 -1
3438 2 -6.8848294421703526e-01 9.7846872412939465e+00 1.1426532906801086e+01 0 0 1
418 1 1.1762019745035306e+00 7.5428953589771499e+00 1.2742380575981942e+01 1 1 0
707 1 -2.3303418736962422e-01 1.0973715367429818e+01 8.8936761287426869e+00 0 1 0
3940 2 1.9386228839822284e+00 1.0162392681014339e+01 1.2909014123454039e+01 1 1 1
2036 2 4.6613383111358022e+00 7.0582849250693744e+00 9.3295388154132546e+00 0 1 1
619 1 6.1783723777814146e+00 1.0397358706491085e+01 8.3725340042966110e+00 1 0 0
705 1 6.3313142646472720e+00 8.1189722417870378e+00 1.1375812857517008e+01 0 1 1
874 1 3.7294404582553904e+00 9.5580547267135287e+00 8.5478518606662721e+00 0 0 0
3603 2 3.8362391417067006e+00 7.6836061425304791e+00 1.2280806578240739e+01 2 0 1
3233 2 4.6876747906582548e+00 1.0388910098978680e+01 1.0950474272385080e+01 1 0 0
134 1 7.4355381560517593e+00 1.0517913543747401e+01 1.0584087596125578e+01 -2 1 0
2269 2 8.0198670487442190e+00 8.2362616556518997e+00 8.8702203953020398e+00 0 0 0
2144 2 1.1390599943629816e+01 7.0916033944084003e+00 1.2229588820506132e+01 0 0 0
2351 2 1.0403505304828114e+01 9.7354205064993469e+00 1.0539707477404120e+01 0 0 0
22 1 1.0567509169393714e+01 7.1024086389274235e+00 9.5507168200708144e+00 0 0 0
236 1 1.2666617790677188e+01 9.3537664922074271e+00 1.2134321573301321e+01 -1 1 0
3956 2 8.3418474107631102e+00 9.3229939643576465e+00 1.2870011558099455e+01 2 0 0
596 1 1.2864575047624074e+01 1.0758595777896916e+01 1.0196951961172211e+01 0 1 2
949 1 1.4396393925123210e+01 6.6848100146490150e+00 1.1565582739178126e+01 -1 0 0
3189 2 1.6406357468486895e+01 6.8580257378502552e+00 9.4773855167934951e+00 1 1 0
3473 2 1.7037760324089543e+01 7.5125804285605309e+00 1.2425794743925545e+01 0 0 -2
2265 2 1.3152042925889500e+01 8.0405435513465910e+00 9.4852523785113050e+00 0 0 0
2923 2 1.5238693433161487e+01 9.7159730348334641e+00 1.1294474462161391e+01 1 0 -1
550 1 1.5595959962686731e+01 9.4402374802423417e+00 8.6420926385676484e+00 0 0 0
715 1 -2.3744936774439127e+00 -3.1442963784021360e-01 1.5229122669607253e+01 0 0 1
3692 2 -1.2955836178327444e+00 -8.7568498724848620e-02 1.7642629795451622e+01 2 1 -1
2390 2 -1.8013827154426565e-01 -4.2129050049716721e-01 1.3846256377348599e+01 1 1 1
362 1 7.4639208905680388e-01 -1.5796124942278293e+00 1.6216875053293823e+01 1 0 -1
2768 2 1.1047996852550765e+00 1.2524123226780013e+00 1.6401085728892209e+01 0 1 1
2426 2 1.9896244668399259e+00 -2.5886039139719648e+00 1.4041773320469762e+01 1 0 0
3532 2 3.4997694756788178e+00 8.0746985691141182e-01 1.4472423823643776e+01 -1 1 0
3490 2 6.2851928618678805e+00 -8.0193578197592386e-01 1.4017762169201394e+01 0 0 1
545 1 5.7591508749472418e+00 -9.9551907622104974e-02 1.6579359460795430e+01 0 -1 0
1612 1 3.6629008168111277e+00 -1.4114414047264647e+00 1.6040049350237997e+01 1 0 1
2238 2 3.7771759809709824e+00 1.3100616438361974e+00 1.7914689547668925e+01 -1 0 1
2450 2 8.0579835861286853e+00 1.4278792789969446e+00 1.5920994463969180e+01 0 0 0
798 1 8.0357303131586857e+00 -1.3480889240142180e+00 1.6194499511457931e+01 1 1 -1
787 1 9.1980068847540473e+00 -4.1247862687754777e-01 1.4152632421778709e+01 1 2 2
3134 2 1.0933294637341872e+01 -5.4042057837247137e-01 1.6347654416723159e+01 1 0 1
821 1 1.1325280886181753e+01 -2.1265710532039326e+00 1.3473077537226668e+01 0 1 0
886 1 1.2731603470659103e+01 -2.4986011255963980e-01 1.4474605529388814e+01 0 -1 1
1354 1 1.6234141794046611e+01 -2.4241020035966661e+00 1.3217739794588354e+01 0 0 0
2914 2 1.5887760793752655e+01 -1.3595013811267689e+00 1.7165389335938237e+01 0 0 0
3474 2 1.3983698755252323e+01 1.1148129319043636e+00 1.6635430246637181e+01 1 1 -1
1657 1 1.5166554665902016e+01 -6.2529218947034160e-01 1.4609102888718063e+01 0 0 0
1053 1 1.6552970614617401e+01 1.3135425933005460e+00 1.5518415045033148e+01 1 1 2
1730 1 1.3309023341763558e+01 -1.6112624029558522e+00 1.7633678168820708e+01 0 2 -1
3348 2 1.7901939270681570e+01 -9.2506524996754758e-01 1.4568932643977281e+01 -1 0 0
3118 2 1.4172903939397273e+01 1.8666263103121610e+00 1.3593111919992346e+01 1 0 1
2754 2 1.1014695478608618e+00 2.4160544643185125e+00 1.3358645605501987e+01 0 0 0
2537 2 3.3593234549885631e-01 5.3113510736958132e+00 1.4350775965692804e+01 0 0 -1
811 1 -1.4604157449736643e-01 4.3321214041474150e+00 1.6876338696022000e+01 1 0 -2
2297 2 -1.4817803526617961e+00 2.5809591735496413e+00 1.5240639440397256e+01 -1 0 -1
1887 1 1.9757814223950128e+00 5.9169444097196120e+00 1.7604438590318114e+01 1 0 -1
2642 2 2.7709598384327183e+00 3.6840241671535221e+00 1.5900958729949686e+01 0 0 -1
2498 2 6.2607170955149432e+00 2.1759248817179335e+00 1.3272087560007542e+01 1 1 0
303 1 5.3921541200669889e+00 2.3894911350146550e+00 1.6100757312781031e+01 0 0 1
964 1 3.1328692703625380e+00 5.4094874292128967e+00 1.3800333802558736e+01 -1 0 -1
1067 1 4.3268040794381228e+00 5.9298592430812214e+00 1.6215024391507455e+01 -1 -1 1
845 1 5.1093969315349286e+00 4.2501415172173012e+00 1.4350007012355089e+01 1 -1 0
3830 2 6.8830843751162476e+00 4.6353132421678271e+00 1.6224347597414365e+01 1 -1 1
1584 1 7.6186779530073103e+00 4.6334237629032629e+00 1.3337736614219841e+01 0 1 0
405 1 8.9509599131112569e+00 2.0744419011028530e+00 1.3424152954579604e+01 0 -1 0
3232 2 1.1264970665905157e+01 2.2989718298223583e+00 1.5108445270491671e+01 1 -1 0
3227 2 9.5219260809572877e+00 3.9984899111238743e+00 1.7644978440143348e+01 -1 0 0
469 1 9.2702924447316200e+00 4.2663666412559262e+00 1.5018483576350121e+01 0 1 0
3651 2 1.1422442172651456e+01 5.8979387075619787e+00 1.5345546227921133e+01 1 -1 0
3729 2 1.7871957970778169e+01 5.8519797311075354e+00 1.7380077486959237e+01 1 0 0
1156 1 1.3132562826375420e+01 3.8754916378394038e+00 1.6162442154928637e+01 0 1 1
1228 1 1.6014883381717972e+01 5.2409082117520303e+00 1.3135408226321942e+01 0 -1 -1
3176 2 1.7149733480463784e+01 2.7887739105062463e+00 1.3224261083586601e+01 -1 1 -1
3628 2 1.3373782265612114e+01 4.8003582458747243e+00 1.3510534371904399e+01 1 1 1
2485 2 1.5834262760946302e+01 4.1395817248016176e+00 1.5698446095435706e+01 0 1 -1
3359 2 1.4269541520873286e+01 6.4900701048063798e+00 1.6986851608612788e+01 0 2 0
505 1 -2.2250144649018249e+00 1.0249105502227318e+01 1.6280382816249595e+01 1 2 1
203 1 3.5757825849077784e-01 9.7723368167200331e+00 1.5627024089562262e+01 0 -2 0
3726 2 -5.2824058674761831e-01 7.0772944198854564e+00 1.6908602644139549e+01 2 0 0
3926 2 -1.1848277979267507e+00 8.2407989476717294e+00 1.4121387643944452e+01 1 1 -1
2901 2 2.4456601177088775e+00 7.6718633622502974e+00 1.5225565440670241e+01 0 1 1
3614 2 1.7065208640161647e+00 9.0036412866917637e+00 1.7881127644136793e+01 1 -1 0
3201 2 6.8453033666985856e+00 9.8226992447438182e+00 1.7860962883741500e+01 0 1 0
1098 1 2.7698851626201044e+00 1.0471335608288614e+01 1.5464859720356699e+01 1 1 1
2401 2 5.1235963275616117e+00 9.6469738540597021e+00 1.4222150895323463e+01 -1 1 1
273 1 4.3230641674292878e+00 9.1059339599580635e+00 1.6804635328418097e+01 0 0 -1
822 1 6.2130285324456072e+00 7.4045141877335929e+00 1.6808029497361549e+01 0 -1 0
2146 2 6.2129580558069577e+00 6.8871005002714689e+00 1.4116693250507968e+01 0 1 -1
1932 1 7.8351794898395379e+00 9.0392203847967902e+00 1.5411852047632259e+01 0 1 -1
1380 1 9.1489881690215604e+00 6.7054034628255614e+00 1.3954999901404737e+01 0 0 0
3788 2 9.8711903024020611e+00 1.0011613005371460e+01 1.7212477955337551e+01 1 1 1
2197 2 1.0956911966088960e+01 9.1620151003123151e+00 1.4487471482502901e+01 0 0 0
3587 2 8.9533950972738801e+00 7.0449993618957567e+00 1.6775838377103955e+01 0 0 0
1347 1 1.1593373268675723e+01 7.6617569426336622e+00 1.7363228105951002e+01 1 0 0
2871 2 -2.6333958215467703e+00 5.6616281025512905e+00 1.4764076459788757e+01 1 0 0
210 1 1.6467721171182454e+01 6.8237387133852021e+00 1.5089885793730989e+01 -2 -1 0
3287 2 1.3254870547822549e+01 9.6831064457479989e+00 1.6670523290658608e+01 0 -1 0
5 1 1.6336156140004345e+01 9.6097236218453883e+00 1.4023178920898236e+01 -1 -1 0
3364 2 1.6356245376736393e+01 8.9099756211642873e+00 1.6874580144909043e+01 0 2 0
393 1 1.1682389963574121e+01 1.1108480152704471e+01 8.0322941362759597e+00 -1 1 1
1399 1 1.2040234826806589e+01 5.0752968015725237e+00 1.8049506246161052e+01 0 1 1
580 1 -3.7176073772489104e-03 9.6688935200706494e-01 1.9806558883149751e+01 0 2 -1
231 1 -6.2168382672993783e-01 -1.4996587307193550e+00 1.9845578952559126e+01 0 0 0
3947 2 1.3424183838066179e+00 -7.5977526905604287e-01 2.1841939640184414e+01 0 0 0
3094 2 1.9020083964827803e+00 -9.7144536657062464e-01 1.8713774819832587e+01 2 0 1
3120 2 -1.9974439559860122e+00 -1.9422216984475549e-01 2.1600595606605076e+01 1 0 -1
625 1 2.4704599857572518e+00 1.4586608860951866e+00 2.0407929154450475e+01 0 1 1
1568 1 6.8904061969700470e-01 1.9951350148945961e+00 2.2096036876964774e+01 1 0 -1
3401 2 4.5035122481516954e+00 -1.4005080131476211e-01 2.0643013875635031e+01 1 0 -1
1298 1 6.8840353584492515e+00 1.1243741380978576e+00 2.1275106110796148e+01 2 0 1
2451 2 6.7617743483054387e+00 -1.8880068987010548e+00 2.1839872442877823e+01 0 0 0
3643 2 7.1061775225686468e+00 -6.5846787536005702e-01 1.8814699494049560e+01 0 1 0
1448 1 3.1800425472194362e+00 1.1535480785056937e+00 2.2895759794391424e+01 1 -1 -1
1962 1 4.4931720943934561e+00 -1.7646802863950808e+00 1.8441639758518107e+01 0 0 -1
14 1 5.4532303452096844e+00 2.2131114735774515e-01 2.3179881945861990e+01 -1 0 0
1838 1 3.6939750145125752e+00 -1.4817763060133176e+00 2.3251651452124822e+01 2 1 -1
3316 2 9.3718066052583389e+00 1.8344355619260400e-01 2.0897011970315056e+01 2 0 -1
2492 2 1.2193717311157085e+01 1.3164099432814633e+00 2.1445157990128720e+01 -1 -1 0
955 1 1.2189326312707474e+01 -1.1641814300769471e+00 2.2713389576939388e+01 1 0 0
95 1 1.1729133488520729e+01 -2.7454293822686626e-01 1.9037429336384950e+01 -1 0 -1
1309 1 1.1072306143429817e+01 -1.8889353758425464e+00 2.0649402273181412e+01 1 0 1
1785 1 9.5897847379013630e+00 -1.4139076218118591e+00 1.8562709242250872e+01 1 1 0
524 1 9.5281842991975854e+00 1.1793811577091451e+00 1.8230772505124545e+01 -1 1 -1
2015 2 9.4207914029664135e+00 -2.1824757546287739e+00 2.3281628403215922e+01 0 0 -1
87 1 1.4364859457242325e+01 -2.5504674094944324e-01 2.1800597490399248e+01 -1 1 1
2381 2 1.6585371124368951e+01 -3.9314537921575976e-01 2.0094201584248204e+01 -1 1 1
1023 1 1.6632073082436726e+01 1.9397246234939036e-01 2.2709768824960243e+01 0 0 -1
807 1 1.4141142531807517e+01 2.5611694030018572e-01 1.9219974802065277e+01 -1 -1 1
1660 1 1.6042651924116477e+01 -2.4204698890317644e+00 2.2028368853554365e+01 0 0 0
2558 2 1.3731660665969343e+01 -2.4941436525232024e+00 2.0344679684873256e+01 0 0 0
3517 2 -1.5122894167958389e+00 3.0164158047405980e+00 2.1041756886141087e+01 1 0 -1