LAMMPS (2 Aug 2023 - Update 2)
WARNING: Using I/O redirection is unreliable with parallel runs. Better to use the -in switch to read input files.
OMP_NUM_THREADS environment is not set. Defaulting to 1 thread.
  using 1 OpenMP thread(s) per MPI task
units           metal
boundary        p p p
timestep        0.002
region          box block 0.000000 10.830000 0.000000 10.830000 0.000000 10.830000
create_box      2 box
Created orthogonal box = (0 0 0) to (10.83 10.83 10.83)
  1 by 2 by 2 MPI processor grid
mass            1 63.550000
mass            2 91.220000
pair_style      eam/fs
pair_coeff      * * lmp/.potential/Cu-Zr_2.eam.fs Cu Zr
velocity        all create 2000.0 4587284 dist gaussian mom yes rot yes
thermo          10000
thermo_style    custom step temp press vol pe ke etotal
thermo_modify   flush yes
dump            1 all custom 10000 lmp/dump/CuFCC108.lammpstrj id type x y z vx vy vz
fix             1 all npt temp 2000.0 2000.0 0.2 iso 0.0 0.0 2.0
run             500000
Neighbor list info ...
  update: every = 1 steps, delay = 0 steps, check = yes
  max neighbors/atom: 2000, page size: 100000
  master list distance cutoff = 9.6
  ghost atom cutoff = 9.6
  binsize = 4.8, bins = 3 3 3
  1 neighbor lists, perpetual/occasional/extra = 1 0 0
  (1) pair eam/fs, perpetual
      attributes: half, newton on
      pair build: half/bin/atomonly/newton
      stencil: half/bin/3d
      bin: standard
Per MPI rank memory allocation (min/avg/max) = 3.369 | 3.369 | 3.369 Mbytes
   Step          Temp          Press          Volume         PotEng         KinEng         TotEng    
         0   2000           57338.575      1270.2388     -354.25126      27.661671     -326.58959    
     10000   1847.946       19796.821      1463.5434     -301.07485      25.558637     -275.51621    
     20000   2108.3426     -16620.09       1484.4138     -303.63878      29.160139     -274.47864    
     30000   2154.8635      11784.681      1546.2934     -295.30161      29.803562     -265.49805    
     40000   1986.2598      10088.249      1474.6068     -301.69466      27.471633     -274.22303    
     50000   1952.082       22019.333      1472.3674     -299.48526      26.998925     -272.48633    
     60000   1811.2349     -722.07645      1490.904      -300.85395      25.050891     -275.80306    
     70000   2013.5769      17811.742      1465.4339     -297.13818      27.84945      -269.28873    
     80000   2018.8106      12431.208      1483.7012     -300.45286      27.921838     -272.53102    
     90000   1904.9587     -9600.482       1514.91       -298.89368      26.34717      -272.54651    
    100000   1801.6281     -14456.812      1526.3466     -298.39376      24.918022     -273.47573    
    110000   2007.2638     -5522.6636      1537.6871     -298.47054      27.762135     -270.7084     
    120000   2188.7117      2883.5044      1504.4765     -297.75435      30.271711     -267.48264    
    130000   2055.0136      3799.1216      1509.4431     -300.6326       28.422556     -272.21004    
    140000   1779.5656     -8881.9135      1583.2358     -293.73116      24.612878     -269.11828    
    150000   2017.3698     -3972.9504      1488.5343     -301.68252      27.90191      -273.78061    
    160000   2226.1604     -10622.239      1504.0754     -301.56082      30.789658     -270.77116    
    170000   1914.4088      6163.2777      1454.0566     -305.76891      26.477873     -279.29103    
    180000   1758.2444      12328.066      1501.7496     -297.96958      24.317989     -273.65159    
    190000   1961.7312     -27419.257      1540.1475     -299.31223      27.132382     -272.17985    
    200000   2105.6755      28357.132      1475.2234     -299.69778      29.123252     -270.57452    
    210000   2151.9178     -3413.9592      1498.308      -302.69558      29.76282      -272.93276    
    220000   1964.3032     -5410.4414      1465.612      -305.28701      27.167955     -278.11905    
    230000   2041.5719      9239.5969      1474.2024     -301.735        28.236645     -273.49836    
    240000   2095.4275      448.54845      1495.8764     -303.58815      28.981512     -274.60664    
    250000   2398.1096      5306.0967      1474.304      -307.68619      33.167859     -274.51833    
    260000   2073.3147      19506.176      1453.3158     -303.94658      28.675675     -275.2709     
    270000   1919.1555     -12451.532      1549.984      -298.75762      26.543524     -272.2141     
    280000   2130.2663     -4906.5635      1492.2594     -302.50687      29.463362     -273.04351    
    290000   1917.5283     -14131.468      1516.3002     -299.48934      26.521019     -272.96833    
    300000   1781.4513      11957.238      1473.8724     -299.43614      24.63896      -274.79718    
    310000   1850.3158     -3771.5792      1470.8273     -304.82369      25.591413     -279.23228    
    320000   1878.6928     -17807.84       1523.6127     -301.86059      25.983892     -275.8767     
    330000   2219.3688     -15850.201      1548.6219     -298.2044       30.695725     -267.50868    
    340000   2077.5538      5566.8147      1541.227      -290.40856      28.734305     -261.67425    
    350000   2157.6748     -4147.7409      1494.7826     -302.02799      29.842445     -272.18555    
    360000   2172.065       10490.005      1480.5035     -301.40016      30.041473     -271.35868    
    370000   1898.485       10348.387      1491.3564     -300.90774      26.257633     -274.65011    
    380000   1927.2637     -18133.998      1540.3221     -297.43559      26.655667     -270.77992    
    390000   1888.2085     -17932.653      1499.6218     -304.3297       26.115501     -278.2142     
    400000   2015.0417     -8911.5474      1497.4215     -304.14651      27.869711     -276.2768     
    410000   1746.9974     -19407.889      1538.4474     -295.28047      24.162433     -271.11804    
    420000   1734.815      -2562.4645      1482.0422     -302.88658      23.993941     -278.89264    
    430000   1972.0186     -17823.801      1543.4436     -298.76175      27.274665     -271.48709    
    440000   1912.6531      11137.979      1485.1879     -299.24621      26.45359      -272.79262    
    450000   1797.2594     -9473.9744      1495.5995     -299.70622      24.8576       -274.84862    
    460000   2109.6022      12106.102      1468.16       -303.83242      29.17756      -274.65486    
    470000   2112.929      -5906.6497      1506.5565     -301.27397      29.223573     -272.05039    
    480000   2359.6751      5911.5666      1498.4259     -300.53392      32.636279     -267.89765    
    490000   1706.9097     -19459.346      1508.2202     -298.94388      23.607987     -275.33589    
    500000   1849.9002      15529.664      1475.0798     -301.56758      25.585665     -275.98192    
Loop time of 70.3686 on 4 procs for 500000 steps with 108 atoms

Performance: 1227.820 ns/day, 0.020 hours/ns, 7105.441 timesteps/s, 767.388 katom-step/s
90.8% CPU use with 4 MPI tasks x 1 OpenMP threads

MPI task timing breakdown:
Section |  min time  |  avg time  |  max time  |%varavg| %total
---------------------------------------------------------------
Pair    | 47.565     | 47.726     | 47.857     |   1.6 | 67.82
Neigh   | 1.2476     | 1.2526     | 1.2554     |   0.3 |  1.78
Comm    | 17.428     | 17.486     | 17.546     |   1.0 | 24.85
Output  | 0.0048471  | 0.005637   | 0.0066555  |   1.0 |  0.01
Modify  | 2.7605     | 2.7895     | 2.8102     |   1.2 |  3.96
Other   |            | 1.109      |            |       |  1.58

Nlocal:             27 ave          28 max          26 min
Histogram: 1 0 0 0 0 2 0 0 0 1
Nghost:        1357.25 ave        1374 max        1342 min
Histogram: 1 0 0 1 0 1 0 0 0 1
Neighs:        3679.25 ave        3953 max        3515 min
Histogram: 1 1 0 1 0 0 0 0 0 1

Total # of neighbors = 14717
Ave neighs/atom = 136.26852
Neighbor list builds = 16263
Dangerous builds = 0
Total wall time: 0:01:10
