LAMMPS data file generated by matlab script

   108 atoms

     2 atom types

  0.00  10.83 xlo xhi
  0.00  10.83 ylo yhi
  0.00  10.83 zlo zhi

Masses

     1  63.55
     2  91.22

Atoms

     1      1    0.00000    0.00000    0.00000
     2      1    1.80500    1.80500    0.00000
     3      1    1.80500    0.00000    1.80500
     4      1    0.00000    1.80500    1.80500
     5      1    3.61000    0.00000    0.00000
     6      1    5.41500    1.80500    0.00000
     7      1    5.41500    0.00000    1.80500
     8      1    3.61000    1.80500    1.80500
     9      1    7.22000    0.00000    0.00000
    10      1    9.02500    1.80500    0.00000
    11      1    9.02500    0.00000    1.80500
    12      1    7.22000    1.80500    1.80500
    13      1    0.00000    3.61000    0.00000
    14      1    1.80500    5.41500    0.00000
    15      1    1.80500    3.61000    1.80500
    16      1    0.00000    5.41500    1.80500
    17      1    3.61000    3.61000    0.00000
    18      1    5.41500    5.41500    0.00000
    19      1    5.41500    3.61000    1.80500
    20      1    3.61000    5.41500    1.80500
    21      1    7.22000    3.61000    0.00000
    22      1    9.02500    5.41500    0.00000
    23      1    9.02500    3.61000    1.80500
    24      1    7.22000    5.41500    1.80500
    25      1    0.00000    7.22000    0.00000
    26      1    1.80500    9.02500    0.00000
    27      1    1.80500    7.22000    1.80500
    28      1    0.00000    9.02500    1.80500
    29      1    3.61000    7.22000    0.00000
    30      1    5.41500    9.02500    0.00000
    31      1    5.41500    7.22000    1.80500
    32      1    3.61000    9.02500    1.80500
    33      1    7.22000    7.22000    0.00000
    34      1    9.02500    9.02500    0.00000
    35      1    9.02500    7.22000    1.80500
    36      1    7.22000    9.02500    1.80500
    37      1    0.00000    0.00000    3.61000
    38      1    1.80500    1.80500    3.61000
    39      1    1.80500    0.00000    5.41500
    40      1    0.00000    1.80500    5.41500
    41      1    3.61000    0.00000    3.61000
    42      1    5.41500    1.80500    3.61000
    43      1    5.41500    0.00000    5.41500
    44      1    3.61000    1.80500    5.41500
    45      1    7.22000    0.00000    3.61000
    46      1    9.02500    1.80500    3.61000
    47      1    9.02500    0.00000    5.41500
    48      1    7.22000    1.80500    5.41500
    49      1    0.00000    3.61000    3.61000
    50      1    1.80500    5.41500    3.61000
    51      1    1.80500    3.61000    5.41500
    52      1    0.00000    5.41500    5.41500
    53      1    3.61000    3.61000    3.61000
    54      1    5.41500    5.41500    3.61000
    55      1    5.41500    3.61000    5.41500
    56      1    3.61000    5.41500    5.41500
    57      1    7.22000    3.61000    3.61000
    58      1    9.02500    5.41500    3.61000
    59      1    9.02500    3.61000    5.41500
    60      1    7.22000    5.41500    5.41500
    61      1    0.00000    7.22000    3.61000
    62      1    1.80500    9.02500    3.61000
    63      1    1.80500    7.22000    5.41500
    64      1    0.00000    9.02500    5.41500
    65      1    3.61000    7.22000    3.61000
    66      1    5.41500    9.02500    3.61000
    67      1    5.41500    7.22000    5.41500
    68      1    3.61000    9.02500    5.41500
    69      1    7.22000    7.22000    3.61000
    70      1    9.02500    9.02500    3.61000
    71      1    9.02500    7.22000    5.41500
    72      1    7.22000    9.02500    5.41500
    73      1    0.00000    0.00000    7.22000
    74      1    1.80500    1.80500    7.22000
    75      1    1.80500    0.00000    9.02500
    76      1    0.00000    1.80500    9.02500
    77      1    3.61000    0.00000    7.22000
    78      1    5.41500    1.80500    7.22000
    79      1    5.41500    0.00000    9.02500
    80      1    3.61000    1.80500    9.02500
    81      1    7.22000    0.00000    7.22000
    82      1    9.02500    1.80500    7.22000
    83      1    9.02500    0.00000    9.02500
    84      1    7.22000    1.80500    9.02500
    85      1    0.00000    3.61000    7.22000
    86      1    1.80500    5.41500    7.22000
    87      1    1.80500    3.61000    9.02500
    88      1    0.00000    5.41500    9.02500
    89      1    3.61000    3.61000    7.22000
    90      1    5.41500    5.41500    7.22000
    91      1    5.41500    3.61000    9.02500
    92      1    3.61000    5.41500    9.02500
    93      1    7.22000    3.61000    7.22000
    94      1    9.02500    5.41500    7.22000
    95      1    9.02500    3.61000    9.02500
    96      1    7.22000    5.41500    9.02500
    97      1    0.00000    7.22000    7.22000
    98      1    1.80500    9.02500    7.22000
    99      1    1.80500    7.22000    9.02500
   100      1    0.00000    9.02500    9.02500
   101      1    3.61000    7.22000    7.22000
   102      1    5.41500    9.02500    7.22000
   103      1    5.41500    7.22000    9.02500
   104      1    3.61000    9.02500    9.02500
   105      1    7.22000    7.22000    7.22000
   106      1    9.02500    9.02500    7.22000
   107      1    9.02500    7.22000    9.02500
   108      1    7.22000    9.02500    9.02500

