ITEM: TIMESTEP
0
ITEM: NUMBER OF ATOMS
108
ITEM: BOX BOUNDS pp pp pp
0.0000000000000000e+00 1.0830000000000000e+01
0.0000000000000000e+00 1.0830000000000000e+01
0.0000000000000000e+00 1.0830000000000000e+01
ITEM: ATOMS id type x y z vx vy vz
1 1 0 0 0 -1.46854 -8.81794 1.82885
2 1 1.805 1.805 0 0.437653 6.47521 1.20165
3 1 1.805 0 1.805 -0.000552905 1.71386 -4.78384
4 1 0 1.805 1.805 3.75859 0.601301 3.44872
5 1 3.61 0 0 -9.82755 -2.16447 -0.774468
6 1 5.415 1.805 0 8.91048 -1.24632 -5.35711
7 1 5.415 0 1.805 -1.56181 -6.74584 1.19742
8 1 3.61 1.805 1.805 -0.825045 -7.78931 -1.7559
13 1 0 3.61 0 -4.37362 -6.81769 2.39949
15 1 1.805 3.61 1.805 -9.04381 -5.9235 3.73585
17 1 3.61 3.61 0 1.62803 2.76845 -9.39564
19 1 5.415 3.61 1.805 -4.97314 1.3781 2.21633
37 1 0 0 3.61 2.23503 -1.82025 0.071991
38 1 1.805 1.805 3.61 -1.1399 2.23635 3.24333
41 1 3.61 0 3.61 3.15311 0.787506 -10.3166
42 1 5.415 1.805 3.61 1.17496 -4.12358 0.615062
49 1 0 3.61 3.61 4.07573 -1.87617 -2.9296
53 1 3.61 3.61 3.61 -7.75421 -6.45213 -1.78598
9 1 7.22 0 0 6.5786 8.11361 3.73491
10 1 9.025 1.805 0 4.71005 -6.78078 0.654789
11 1 9.025 0 1.805 -5.90354 0.541165 4.34239
12 1 7.22 1.805 1.805 3.6048 1.22014 1.04923
21 1 7.22 3.61 0 0.101029 -3.13209 -1.06809
23 1 9.025 3.61 1.805 -7.15321 4.07278 1.72679
45 1 7.22 0 3.61 -1.5074 -3.57836 8.36977
46 1 9.025 1.805 3.61 3.70796 -2.95131 1.7069
57 1 7.22 3.61 3.61 -2.19098 -0.959968 1.10746
39 1 1.805 0 5.415 0.188724 1.80336 0.895426
40 1 0 1.805 5.415 -2.65688 3.99486 2.39447
43 1 5.415 0 5.415 -12.5682 9.1638 2.68273
44 1 3.61 1.805 5.415 -2.22335 -0.0296558 -5.4547
51 1 1.805 3.61 5.415 6.64994 5.86264 5.46778
55 1 5.415 3.61 5.415 -2.47984 8.69368 7.39588
73 1 0 0 7.22 9.47288 3.35921 0.621592
74 1 1.805 1.805 7.22 6.55709 0.339959 -1.35953
75 1 1.805 0 9.025 12.9909 13.5434 4.29593
76 1 0 1.805 9.025 -1.53015 4.01609 -8.13436
77 1 3.61 0 7.22 2.43333 2.99735 4.24907
78 1 5.415 1.805 7.22 -9.04839 4.81589 -0.291363
79 1 5.415 0 9.025 -3.67094 1.70652 -3.13615
80 1 3.61 1.805 9.025 -0.860673 -2.44721 -7.59607
85 1 0 3.61 7.22 8.38203 5.13788 5.10704
87 1 1.805 3.61 9.025 0.281571 8.78653 -7.97546
89 1 3.61 3.61 7.22 -3.20059 -15.358 -6.5013
91 1 5.415 3.61 9.025 5.35866 3.13268 -4.2939
47 1 9.025 0 5.415 -1.05495 -3.12014 -3.86088
48 1 7.22 1.805 5.415 3.66828 3.35052 8.01432
59 1 9.025 3.61 5.415 -3.81817 3.43681 -6.56001
81 1 7.22 0 7.22 8.57365 -9.46624 1.85504
82 1 9.025 1.805 7.22 1.64926 -3.67966 -8.62013
83 1 9.025 0 9.025 -7.66884 -9.14756 -6.70062
84 1 7.22 1.805 9.025 1.37067 13.0533 6.43751
93 1 7.22 3.61 7.22 0.420755 1.40636 -4.4001
95 1 9.025 3.61 9.025 2.34047 -7.32687 0.961691
14 1 1.805 5.415 0 2.10834 5.39479 -0.0953627
16 1 0 5.415 1.805 2.71963 3.6414 3.04404
18 1 5.415 5.415 0 3.47388 8.93535 -9.95212
20 1 3.61 5.415 1.805 0.362396 -2.74865 -9.07414
25 1 0 7.22 0 2.70319 0.822833 1.85335
26 1 1.805 9.025 0 -3.45195 4.91664 2.45457
27 1 1.805 7.22 1.805 -0.214247 -2.726 4.605
28 1 0 9.025 1.805 -0.855843 4.89327 0.387043
29 1 3.61 7.22 0 -2.50838 -4.32321 6.8451
30 1 5.415 9.025 0 7.09401 -7.3308 2.93584
31 1 5.415 7.22 1.805 1.69039 4.5609 2.71893
32 1 3.61 9.025 1.805 4.44469 -5.95922 -5.27811
50 1 1.805 5.415 3.61 2.69325 2.58576 -2.11508
54 1 5.415 5.415 3.61 0.604035 -2.05781 -0.0442943
61 1 0 7.22 3.61 -5.43618 -7.59548 9.96852
62 1 1.805 9.025 3.61 9.92734 1.42856 -4.0097
65 1 3.61 7.22 3.61 -0.194892 3.30998 -3.02146
66 1 5.415 9.025 3.61 2.76268 -0.634113 -5.33105
22 1 9.025 5.415 0 -7.53969 -1.30211 -2.76698
24 1 7.22 5.415 1.805 2.9627 -9.30509 1.07995
33 1 7.22 7.22 0 0.348686 1.17917 9.18802
34 1 9.025 9.025 0 1.47811 2.60105 -0.521192
35 1 9.025 7.22 1.805 -3.92218 6.28628 -1.36298
36 1 7.22 9.025 1.805 0.962729 4.5232 1.71773
58 1 9.025 5.415 3.61 8.02586 -1.30841 5.22719
69 1 7.22 7.22 3.61 0.220922 2.76618 5.73835
70 1 9.025 9.025 3.61 -3.31843 -0.854103 -5.49658
52 1 0 5.415 5.415 -0.220094 -10.9395 -1.07833
56 1 3.61 5.415 5.415 1.63033 -5.99068 -1.17434
63 1 1.805 7.22 5.415 1.46141 -7.67363 3.62423
64 1 0 9.025 5.415 -4.88978 3.24366 2.82967
67 1 5.415 7.22 5.415 -6.41516 7.46001 -2.47844
68 1 3.61 9.025 5.415 -6.11165 -2.68771 -2.0255
86 1 1.805 5.415 7.22 2.2287 -1.43008 -4.64554
88 1 0 5.415 9.025 0.145089 -11.526 -2.14946
90 1 5.415 5.415 7.22 5.06901 -0.424443 4.24231
92 1 3.61 5.415 9.025 -12.2184 0.956086 -15.5514
97 1 0 7.22 7.22 -0.803264 6.73277 2.27227
98 1 1.805 9.025 7.22 -2.51092 -3.13495 8.31941
99 1 1.805 7.22 9.025 -6.42158 4.31575 -5.6215
100 1 0 9.025 9.025 -1.44644 0.31153 4.14539
101 1 3.61 7.22 7.22 4.90953 5.62729 1.90112
102 1 5.415 9.025 7.22 4.98738 3.20055 -1.75225
103 1 5.415 7.22 9.025 -11.0641 4.45343 3.64172
104 1 3.61 9.025 9.025 5.39524 -2.70504 6.92951
60 1 7.22 5.415 5.415 2.15782 -4.58199 -2.50189
71 1 9.025 7.22 5.415 -8.03204 1.89065 -0.295488
72 1 7.22 9.025 5.415 -5.23254 6.68846 -4.92802
94 1 9.025 5.415 7.22 1.62436 -0.778103 1.83144
96 1 7.22 5.415 9.025 -3.1988 5.79128 1.76362
105 1 7.22 7.22 7.22 2.06944 -14.5484 3.36998
106 1 9.025 9.025 7.22 1.76401 -3.97145 -0.569443
107 1 9.025 7.22 9.025 4.36411 0.108661 9.76105
108 1 7.22 9.025 9.025 -2.29259 1.15716 1.46765
ITEM: TIMESTEP
10000
ITEM: NUMBER OF ATOMS
108
ITEM: BOX BOUNDS pp pp pp
-2.6182107110404651e-01 1.1091821071104071e+01
-2.6182107110404651e-01 1.1091821071104071e+01
-2.6182107110404651e-01 1.1091821071104071e+01
ITEM: ATOMS id type x y z vx vy vz
5 1 3.1843 4.20029 5.01329 -3.33288 -2.68242 -8.49911
59 1 7.3379 0.80342 3.4095 2.86289 -2.85471 8.17798
108 1 8.81963 3.00341 3.61064 3.95216 -0.625988 -6.85305
71 1 5.42341 2.21914 4.35981 5.50427 -5.09063 -1.74198
28 1 1.93019 1.41803 1.04305 -6.09326 -5.83645 1.15011
16 1 0.205248 4.22379 2.76991 -1.20496 1.85329 -4.88432
107 1 1.06994 4.69712 5.02526 -4.83949 -0.507065 -0.464781
66 1 2.15136 3.14537 2.77853 -7.61133 8.08373 -0.287726
101 1 1.3945 4.00872 0.546347 5.33188 -4.92373 -5.86506
63 1 4.56551 3.49866 2.88443 -7.49184 -1.1094 1.55646
90 1 1.18849 0.812242 3.38899 10.44 -1.10234 0.643981
21 1 10.5346 3.19765 4.53726 3.92559 4.45673 7.90138
44 1 3.88825 3.0452 0.366149 -0.502576 -1.3436 -2.99741
106 1 8.37058 4.71601 5.21833 -2.52361 -6.40805 -8.08055
103 1 10.8162 1.21915 0.0669539 -4.1259 0.279746 -0.278379
1 1 8.21509 1.23744 1.12206 0.260426 -0.67262 0.0275989
33 1 5.47907 5.40733 0.619844 3.39365 4.2996 -1.99694
3 1 7.38162 3.5234 2.0969 7.96905 -0.131676 -3.59368
89 1 5.51222 1.36262 1.59227 2.76435 -2.5187 7.64372
65 1 5.36132 4.7841 5.36335 0.773196 0.592524 4.06864
34 1 7.38515 2.7349 5.03851 -4.55542 -7.47521 0.764738
99 1 3.81538 1.18671 3.16486 -7.75303 -9.32791 -8.86756
41 1 2.58265 5.02849 2.49679 2.07054 3.18506 2.67907
19 1 3.71687 0.556102 0.281002 -2.67785 3.01854 0.68627
17 1 6.56779 3.51098 -0.084371 -2.47742 -2.30944 7.66938
86 1 -0.0735108 3.656 6.79919 -6.18774 -5.40325 8.77456
105 1 5.17202 0.794483 7.91912 7.54244 -1.58798 2.10848
56 1 2.5374 3.81302 7.15276 -2.3884 0.91155 7.13535
88 1 7.98593 3.79982 9.08959 -1.54042 2.61104 6.28222
60 1 0.960506 1.91963 7.75378 -1.32205 -2.85064 -3.35983
15 1 -0.0556069 1.16403 5.6402 -4.89345 -7.71017 -3.9868
7 1 2.02576 5.04481 9.45573 2.87784 2.1655 -1.5054
27 1 9.04699 1.32083 5.65694 -1.00694 -6.89825 -9.66564
14 1 7.98778 1.2521 7.95774 2.34639 -0.758464 3.34853
49 1 6.1826 2.31428 8.92898 0.870963 6.12055 4.2316
10 1 3.6508 5.34361 10.7047 -1.69594 2.06963 -3.67812
11 1 6.5436 0.351005 5.64584 -0.713389 4.06144 -9.36659
32 1 4.21375 2.52105 6.59251 5.49531 3.10405 4.97975
73 1 9.66115 3.35464 11.0815 8.51651 1.9897 5.0492
67 1 8.99956 3.34997 6.78502 -7.23937 -1.42997 5.99247
40 1 0.399269 3.36644 9.55598 1.78682 -4.61344 -2.91014
68 1 10.0971 4.70391 8.64348 -6.54269 2.51565 -4.03093
4 1 9.99358 2.01434 8.39042 1.43818 2.89814 -3.43693
100 1 3.75469 3.17133 8.78904 3.82808 1.43157 1.94395
43 1 2.25753 2.15548 9.91708 5.45648 5.27356 -10.6685
78 1 7.8303 1.41657 10.5038 -0.920858 -2.72103 6.60307
46 1 4.81033 5.25399 7.67101 2.28292 0.906946 4.73062
9 1 4.00444 0.0574763 5.7253 -6.1091 2.21082 -3.28605
51 1 6.39251 2.8265 6.81283 -0.394838 11.2849 -5.30726
92 1 5.07817 1.03085 10.2218 -4.26629 -1.49867 -9.64185
13 1 7.76248 5.30839 7.46832 0.445836 -1.0377 0.383695
8 1 2.83354 0.426435 8.02961 0.863268 6.2183 -0.066799
20 1 1.81614 2.016 5.37598 5.4717 3.9063 -2.31453
24 1 10.5106 5.26341 11.1124 2.9781 2.63253 3.45482
39 1 1.47008 7.22126 3.72843 -11.6206 -10.8456 1.8171
57 1 7.11721 5.93992 2.05268 8.26349 8.47424 0.738321
35 1 0.528846 11.1373 1.69465 5.83011 0.187682 6.40166
69 1 5.2481 10.7213 3.66444 3.80878 5.0175 -2.73421
102 1 9.75456 5.46848 2.96716 5.00192 2.28764 5.74893
30 1 5.16251 8.16963 2.75742 -3.25477 0.209725 -1.60162
18 1 3.04437 10.7617 2.10876 -3.08333 3.3363 6.64221
97 1 6.27253 7.1115 4.52838 10.4202 -5.63354 1.66923
77 1 11.2879 10.376 4.11007 10.102 -1.19367 1.43505
38 1 6.17104 7.31836 0.0394598 1.84621 5.47189 -0.871514
25 1 0.21602 6.77078 1.75746 -1.72764 6.00286 -4.90283
2 1 3.78956 9.18717 4.0098 -11.3448 -6.09157 -1.25923
54 1 4.97501 9.58231 0.716431 0.781313 10.5586 -1.11525
81 1 8.23995 5.52362 0.021912 3.13336 -3.67434 4.39343
26 1 7.97974 7.66979 3.82378 -2.49755 -4.40444 -5.43742
83 1 3.14893 8.25643 1.64517 1.05874 -10.2802 5.30234
75 1 4.72217 5.77402 2.92513 -8.07059 -5.76757 -6.48014
45 1 1.63868 9.25118 2.68327 -0.70259 -3.39531 -9.11776
95 1 8.3358 8.2408 1.57184 -1.03804 -3.69305 -5.03187
85 1 7.05455 10.2226 1.89966 -2.12443 2.05875 -0.929148
50 1 10.7313 8.56756 2.21144 -2.74938 5.22804 2.51187
93 1 6.63254 10.9582 -0.631736 5.21196 1.55071 -15.9773
74 1 10.8099 6.77632 4.4751 -5.11 4.27994 1.22949
62 1 9.35936 11.1531 2.10253 -0.255239 3.31079 4.6456
72 1 1.37409 9.06781 0.42774 -3.19576 8.33187 -5.21309
84 1 9.12173 10.2984 0.348033 1.27254 3.3637 7.90433
29 1 8.2326 9.84845 4.27097 4.54626 -10.832 -0.916168
23 1 1.49975 6.63253 0.413608 -2.11733 -0.0559061 5.59499
80 1 4.03788 6.83686 4.89133 -5.60624 4.57027 -0.127157
98 1 8.18796 8.16293 10.3807 -3.31505 -1.35609 -2.24397
12 1 1.62891 10.9066 10.6545 -3.08441 -3.99673 3.893
36 1 6.80825 10.1631 7.37565 -7.24704 -5.98584 -0.358256
64 1 0.560311 5.96179 6.68873 -2.78283 -2.02953 -0.644522
31 1 3.3401 7.72385 11.0452 7.07473 3.78081 3.02843
104 1 3.39232 8.78489 7.02793 -2.89378 1.6821 -0.251834
76 1 7.9945 8.04193 6.18125 0.343549 -0.210625 16.1603
53 1 5.85706 8.93245 5.42477 0.317201 9.19103 -0.571052
61 1 2.26057 9.16264 8.65265 4.87954 2.62915 4.50138
47 1 0.523955 8.28893 6.78389 9.32786 -1.40074 -1.15082
91 1 10.0398 9.21795 8.58109 -3.92624 -2.67317 4.04804
52 1 5.91959 8.95655 9.53328 -2.09938 -2.9991 -0.718149
58 1 0.468792 6.98645 8.82037 5.14641 -2.32557 0.720757
48 1 6.21515 5.35864 9.6766 -10.4799 -4.39101 -2.50199
37 1 0.437711 10.6208 7.47898 2.80033 3.44188 3.36862
94 1 10.8607 7.50291 11.0756 -5.01001 3.29104 0.00670628
96 1 6.82107 7.62705 8.04304 6.69326 -6.37994 -5.78218
87 1 9.82207 6.61038 6.87157 0.542733 -3.53261 2.72879
82 1 9.39431 10.8589 7.11944 6.2498 9.4643 -4.89216
22 1 8.62382 10.7456 9.36083 2.44011 4.31469 -6.91023
42 1 2.76281 6.42704 7.39372 2.81821 -10.3471 3.00866
70 1 9.14998 6.66301 9.53018 0.723023 2.57849 -1.6455
79 1 4.37718 6.7321 8.91549 -3.49686 -1.7155 3.85578
6 1 2.11878 10.7116 5.77647 -2.84785 -0.685042 3.01034
55 1 10.021 8.98531 5.76925 0.0101464 4.63001 4.66832
ITEM: TIMESTEP
20000
ITEM: NUMBER OF ATOMS
108
ITEM: BOX BOUNDS pp pp pp
-2.8867798663533328e-01 1.1118677986635385e+01
-2.8867798663533328e-01 1.1118677986635385e+01
-2.8867798663533328e-01 1.1118677986635385e+01
ITEM: ATOMS id type x y z vx vy vz
86 1 9.78864 1.45517 3.67874 2.27268 1.63073 3.26378
91 1 3.43252 4.04185 3.03408 7.51566 -3.86412 0.171406
23 1 7.11766 -0.0192459 3.0947 -8.45449 3.29922 2.82363
49 1 9.12302 -0.0362223 0.837812 -3.26719 -2.67682 2.59999
22 1 7.51172 1.79929 0.151291 2.2897 2.90355 2.57141
85 1 5.59959 3.49973 0.124841 -6.56824 -3.31033 -1.03798
84 1 5.83442 1.46022 4.4567 9.00412 -3.91311 -1.69124
32 1 -0.227163 1.33597 0.630813 -3.24991 -4.67816 -3.58239
95 1 5.9212 4.06815 5.06726 6.29613 -7.51272 2.31681
10 1 1.96343 0.788217 2.24656 9.07811 -0.49253 5.86043
17 1 1.78814 3.28562 1.40573 -6.20782 3.90421 -8.23759
93 1 5.4826 0.882736 1.93419 5.91832 3.41844 -7.23129
3 1 9.8112 2.85846 1.79771 -7.59936 -9.49713 1.26683
6 1 5.66679 3.41566 2.96118 -3.64904 0.915412 7.63374
92 1 3.58541 2.44876 4.886 -1.82208 -4.05139 -3.21134
44 1 3.9835 2.81735 1.25579 -0.266655 -0.758624 -5.30682
77 1 7.15259 4.69168 1.81632 6.25882 -1.58832 -5.47489
101 1 9.44134 4.77527 3.76216 1.68776 1.12347 -1.45732
108 1 1.31815 2.24925 4.15594 6.66734 5.87589 -5.86483
58 1 9.36488 4.55478 0.332741 -8.62215 8.5053 -1.91675
105 1 7.76543 3.40886 4.47248 5.66344 2.75277 -2.17183
27 1 7.90809 2.57433 2.52545 -14.3793 -3.43411 -1.48817
2 1 4.46064 5.18149 0.709117 4.66382 6.42003 -2.818
69 1 0.440469 4.40472 4.14438 2.69964 -5.54643 -9.77844
12 1 -0.192672 0.0891996 2.74054 -14.4183 0.986056 -5.93971
50 1 2.08167 -0.131204 5.28774 9.99903 2.26639 -1.27733
89 1 3.5922 0.496186 11.0013 -5.75547 -3.28517 1.29485
88 1 0.576201 2.85139 8.70095 -2.59669 5.22654 1.9545
30 1 7.10486 4.62077 7.47965 0.13177 0.407944 -2.25252
61 1 1.97988 2.38416 6.94962 -3.74655 0.600343 3.82688
73 1 4.28949 3.78502 6.63689 6.23971 2.75441 3.50997
60 1 3.14989 4.61143 8.36218 3.61002 3.51102 -4.24889
100 1 9.79301 2.42495 10.0556 -8.73268 1.33331 6.72545
7 1 8.42326 2.83048 7.7555 1.7707 -0.143564 5.48173
47 1 1.73534 1.78937 10.9283 0.464346 6.33044 -4.54052
62 1 10.1044 1.07 7.46752 3.13704 -2.41977 12.2727
99 1 3.64859 2.03143 8.22793 1.52933 -2.38187 9.04309
39 1 10.2058 3.51206 5.89592 1.90432 3.96199 -4.63756
19 1 2.26727 4.0469 5.34397 5.76794 3.24306 -2.88708
102 1 1.35829 0.386703 7.95708 -0.275239 -4.4166 -3.69483
40 1 8.00591 0.728562 9.38072 5.34389 -3.36857 -7.45519
56 1 7.69399 3.57253 9.87345 5.56635 -4.9145 4.52255
75 1 6.28684 2.1147 6.79026 -7.87109 4.77819 9.61277
14 1 7.42667 -0.33882 6.78985 -0.33942 0.300277 4.07074
5 1 5.25886 3.99073 9.13847 -3.41955 -0.84952 -9.77053
79 1 4.76348 0.126137 6.62614 -5.73273 0.857838 5.06588
8 1 10.9572 0.787304 9.76045 -0.546592 -4.53594 1.28937
94 1 0.0917021 3.88802 10.9943 -0.79838 -1.32442 4.04905
15 1 5.80475 1.25636 10.1119 4.99914 1.20298 -1.54008
21 1 8.39529 4.85805 5.84173 -2.92168 -1.73675 7.26329
43 1 3.04828 3.72662 10.6406 2.04717 -1.39763 -0.970909
25 1 -0.187584 -0.491386 5.30938 -5.02116 -11.7841 -11.6478
63 1 0.818217 4.63581 7.01843 -1.17974 -0.954063 -0.401555
96 1 8.30411 1.54777 5.22226 6.74334 0.627439 -9.72268
97 1 1.59293 6.57817 4.83892 6.96623 0.0033445 -4.82364
41 1 1.81105 9.84945 3.28209 -11.3905 5.34972 13.0849
36 1 4.85133 6.06829 2.98264 -1.2795 1.37084 -2.56654
90 1 8.33381 8.90082 1.05416 -2.11014 7.4337 6.13975
54 1 7.4201 5.9692 4.01178 1.81227 -0.218545 -7.00434
45 1 0.513011 5.69658 1.98351 5.33273 -9.85141 5.02187
104 1 1.27052 8.11682 1.76567 2.1847 -1.50604 12.2314
65 1 4.05223 5.50629 5.18574 5.57898 -3.52878 8.71294
80 1 2.39792 8.62454 4.81778 -0.23048 4.70492 3.63336
64 1 2.26865 6.24404 -0.419101 1.68222 -8.63219 -3.01358
29 1 10.626 9.0692 1.75983 3.00362 -0.264166 14.5629
78 1 3.71048 10.9576 1.5636 -1.12606 -1.19279 1.10736
9 1 5.98443 9.73177 1.82465 6.32152 -4.87237 3.42747
48 1 9.62702 7.01257 3.3059 -9.13961 3.92741 -4.35833
87 1 11.1539 8.84171 4.09252 4.13009 -0.474897 7.60912
106 1 6.35707 6.92759 0.800022 -1.56722 1.3436 -10.9332
24 1 7.92651 8.71884 3.85391 -3.59044 3.07404 -4.80118
70 1 2.84175 6.05499 2.48754 -8.17797 1.16359 -5.02202
83 1 9.8243 6.87382 1.2626 -0.0964051 -4.70518 -3.18988
13 1 4.91612 7.97982 3.47371 -1.66844 6.37174 2.35911
68 1 9.24571 10.1925 3.19251 8.61229 -1.11316 6.25048
98 1 4.4582 7.76115 1.00313 9.09554 -4.31748 -10.3087
42 1 1.04509 10.9374 0.278522 4.4337 1.91403 -4.23734
52 1 4.83602 10.1313 4.44367 -5.00831 4.24533 1.79675
82 1 10.9201 6.07229 5.57391 5.85441 -6.3543 5.7902
51 1 2.61481 9.3745 -0.114776 1.22389 -4.74956 -0.937319
18 1 5.93569 10.993 8.62438 -6.87799 8.84479 -5.04546
35 1 6.65126 8.08481 10.2433 -5.12425 4.22062 -2.74541
53 1 6.66339 9.50822 5.50767 8.3305 -4.22517 3.86192
38 1 3.4076 10.562 8.89348 5.67341 -6.74357 6.46315
26 1 10.4995 9.84386 7.78797 14.3266 -0.700148 1.13831
55 1 10.0785 7.94582 8.5194 -1.50249 6.84445 -0.996304
31 1 0.212148 8.52818 6.52526 -2.23654 -6.04634 -5.24614
33 1 7.89315 9.41401 8.13155 2.22107 3.01717 0.421758
72 1 0.27822 7.95639 10.8722 4.73271 -2.9303 -3.08184
11 1 9.58903 6.13893 7.32858 1.58819 -6.82562 3.08807
20 1 1.17067 9.01267 8.90449 2.69333 5.03573 -6.08366
1 1 2.68889 9.90823 6.6902 -2.42303 5.86134 1.70829
74 1 8.78884 7.80731 6.24818 -5.76108 6.65545 0.629652
107 1 7.2633 10.3547 10.5996 -2.82488 -3.70547 7.59736
4 1 6.55351 7.18022 5.74624 -11.5554 5.02769 -6.29184
67 1 4.09953 8.19339 9.63203 0.110206 -3.3644 -8.28024
103 1 10.288 9.87908 10.5594 -0.77184 -2.22616 1.71624
59 1 5.41031 8.80796 7.83489 -2.48171 0.614646 0.447756
34 1 7.55407 6.96897 8.25038 -4.05474 4.82613 10.5267
76 1 4.31253 7.813 5.64025 -4.50863 5.24499 -6.84872
37 1 10.1279 5.9989 10.3306 0.460395 8.6773 6.09211
71 1 0.478027 5.84174 9.06642 -7.12229 -1.92029 -0.635374
28 1 2.45694 7.31751 7.46202 -1.65962 1.25749 0.899074
66 1 4.98279 6.24625 7.23391 4.21432 7.14051 -8.2177
46 1 7.1689 5.50448 10.7752 2.02567 -5.42266 -3.18349
57 1 4.65535 6.31272 9.9604 -1.81271 -2.43903 -0.798759
81 1 5.01645 10.1052 11.2696 -8.18921 -0.733253 2.83792
16 1 8.97691 9.85066 5.51487 -0.145131 0.59171 3.26026
ITEM: TIMESTEP
30000
ITEM: NUMBER OF ATOMS
108
ITEM: BOX BOUNDS pp pp pp
-3.6685646432007157e-01 1.1196856464320202e+01
-3.6685646432007157e-01 1.1196856464320202e+01
-3.6685646432007157e-01 1.1196856464320202e+01
ITEM: ATOMS id type x y z vx vy vz
18 1 11.2744 0.899982 0.0930763 7.40529 2.43283 -0.513213
70 1 0.0847803 5.51912 0.130773 0.519552 6.48659 -6.15143
95 1 10.7893 3.43521 3.17281 -6.24414 2.10462 5.22283
57 1 9.46757 4.42693 1.46726 7.26001 -2.36117 -3.08717
94 1 2.02094 1.54967 1.20972 5.28419 0.97882 -6.86046
77 1 -0.137431 2.97275 1.02513 -1.3475 3.74845 2.4369
22 1 2.43345 2.9327 3.22318 -1.66698 -2.3594 0.712156
68 1 9.82835 3.36065 5.42798 -5.1405 4.07456 1.56138
76 1 2.16759 0.45885 3.2955 2.61556 0.896488 -0.515951
9 1 7.45562 0.69991 2.92072 -0.880418 3.28709 -4.63011
11 1 -0.465463 -0.132114 2.49502 -0.673214 2.17169 5.73509
29 1 9.30057 0.906938 3.68296 -1.75886 6.43078 -1.52998
3 1 5.20329 0.958965 2.56236 -2.61635 -5.98195 -7.80911
78 1 6.16864 3.33359 -0.529087 0.886902 -6.57717 -7.18475
55 1 0.0124739 1.15924 4.83145 -10.3677 -2.58349 11.2766
71 1 1.5939 4.10715 1.63223 -10.5919 -3.23039 2.81586
96 1 4.05332 2.63935 1.38959 3.65383 0.359481 -4.10807
56 1 0.481895 4.11981 5.22415 4.83537 -4.34388 -5.09596
13 1 3.66813 -0.0179343 0.87288 -8.46856 3.77441 4.17174
74 1 7.82424 2.77437 4.11025 -0.455701 -0.761113 -6.42333
38 1 3.56909 4.30766 0.0940504 1.59113 -1.98058 3.42059
60 1 9.04286 0.354017 11.1753 0.454745 -2.14021 2.25012
106 1 2.5898 0.95427 10.1181 4.38632 4.18905 1.93137
66 1 4.81182 1.67668 6.02463 0.320388 4.85615 2.40469
105 1 3.99661 0.757672 8.46083 -0.0387721 -0.721455 0.0410983
58 1 3.122 3.07111 8.20464 -5.75222 -6.06817 -0.783947
84 1 2.78512 -0.124216 5.84137 -0.738414 -4.86673 1.37257
81 1 -0.470694 3.23527 9.94599 -9.75588 -2.09476 0.292764
61 1 2.18837 2.32873 5.33914 -3.3393 -1.71645 -2.86304
5 1 6.95309 1.34914 9.90412 -6.8985 -9.20559 -5.99944
37 1 7.08783 5.2345 6.69762 0.177904 -0.35242 5.61998
53 1 7.79109 2.98978 6.32962 -0.881883 -0.787119 0.653567
1 1 -0.532778 0.552834 9.34042 -4.35161 2.07959 1.86745
50 1 1.58023 0.972706 7.72035 -1.56331 4.59606 7.81432
91 1 1.18786 4.11246 7.64026 0.0699528 6.65924 1.63582
10 1 1.46795 5.04587 9.77902 0.668057 3.06347 7.24207
97 1 8.78777 0.0130527 6.58562 2.73993 -4.00946 9.77975
90 1 6.8824 1.09615 7.68064 -0.239085 9.52771 -1.15708
73 1 11.1561 1.90382 7.10158 3.99845 -4.29827 -10.2265
67 1 6.84659 3.32269 8.57491 2.36557 1.64796 -12.062
100 1 9.45705 4.27537 8.54445 -4.56571 1.46357 1.57693
8 1 8.48005 3.27442 10.7902 -0.705127 9.57563 -0.420399
80 1 8.93925 2.18708 8.68525 -2.6279 4.86972 -3.04348
83 1 3.32394 4.00005 5.37101 -2.88137 0.68212 -6.55726
62 1 5.47081 3.5223 6.52224 15.0316 -9.49592 5.1455
14 1 5.05238 4.83809 8.65394 2.26411 -8.71543 -0.907035
54 1 4.96249 0.807637 10.4136 3.52868 4.06311 -7.66616
65 1 1.73373 3.48402 11.3895 2.93148 4.41511 -4.98009
86 1 6.81771 0.584191 5.29025 5.22028 10.3494 -7.17824
12 1 0.360705 7.77049 4.68421 -0.167926 -6.46718 -0.591716
85 1 2.92474 9.16371 0.837336 -7.44282 3.2799 1.40019
93 1 0.475442 10.2706 5.02042 2.68938 -5.19187 1.94224
2 1 3.47959 7.69881 3.32832 0.623782 -11.1407 2.95296
19 1 5.3918 8.30511 1.75084 -5.95205 -7.97844 1.72439
43 1 10.2734 5.77895 5.5432 -8.68787 -5.44463 4.33431
17 1 4.9349 6.18576 4.00288 8.31667 -8.72599 -1.6401
51 1 5.53165 8.55832 4.93585 -2.97185 -10.5302 -4.46767
75 1 11.3649 5.96583 2.73093 13.3283 2.12078 13.9454
39 1 1.23509 9.65394 2.73976 10.6725 -0.853401 7.60803
20 1 9.34633 6.26086 3.29891 0.818147 -3.05713 -0.829195
99 1 1.88659 5.86758 3.90096 -3.79986 3.23184 8.99265
35 1 7.11525 6.35856 5.06295 0.300318 -2.61146 3.7478
82 1 3.2734 5.92138 1.94272 -6.77198 1.29875 1.34845
102 1 1.34489 7.55059 1.82558 4.53618 -3.99962 -4.59851
59 1 7.58542 10.2889 4.54526 9.38612 -2.71332 5.96224
41 1 9.74583 10.1865 4.38091 -2.48431 -4.48414 -2.92966
7 1 10.3291 8.31862 2.59933 -8.27787 8.4941 -0.141084
104 1 9.27941 7.69437 0.568363 -3.07264 -1.34809 2.66935
88 1 7.57812 8.80631 3.07933 -8.31855 -5.54125 -8.43712
64 1 6.17395 10.7341 1.55421 9.94868 0.177439 2.32075
103 1 11.3874 9.51407 0.998352 13.2478 -2.1368 -0.421674
36 1 5.73426 5.86274 0.889887 4.45512 4.70931 1.26957
98 1 7.76977 5.57401 -0.0951446 5.13603 -11.1428 -5.63689
108 1 4.35232 10.0428 2.5765 0.0696816 -5.57289 -2.2033
25 1 1.16467 10.6735 -0.440587 -11.7187 3.77962 -1.24536
28 1 8.80994 10.1666 2.05082 -0.0911235 -5.02006 -5.89963
48 1 5.12683 10.8408 4.89872 3.01182 3.77352 -1.96859
69 1 6.89213 8.71785 0.423385 6.17793 6.09824 10.5438
24 1 2.74536 9.58622 4.60675 7.59512 9.80614 -5.3941
89 1 5.16278 5.96054 6.57861 -8.32196 -2.77656 7.0266
15 1 0.0142894 6.86481 8.58029 -0.730539 3.50136 5.9879
107 1 6.76282 10.7751 8.99197 5.56953 -5.75365 -9.92958
33 1 6.81576 9.68141 6.61614 3.73497 -6.6362 6.60733
46 1 8.50741 8.38619 7.07152 -1.36534 -5.84771 4.76593
44 1 0.04351 9.24625 8.45152 4.07864 -9.53689 3.43561
27 1 4.65352 10.269 7.36806 -8.2301 3.31304 -2.58318
42 1 7.45055 6.28435 8.34858 -2.11716 6.55363 0.208857
31 1 0.837425 6.25569 6.38374 -3.30751 -2.83433 6.32867
23 1 9.73339 8.6563 9.29126 -4.52977 3.15634 -0.531846
34 1 1.62599 8.46683 6.8945 9.19242 5.70422 0.959668
49 1 9.81063 6.38234 10.0285 -2.70266 1.2465 -6.102
101 1 2.24145 10.1586 7.95627 0.735594 0.396199 4.4453
72 1 2.94849 8.79337 9.4847 -3.07455 -6.108 -5.84128
4 1 6.15978 5.87933 9.98776 -2.46252 -2.66859 -1.96446
40 1 7.40597 8.52318 9.00082 13.826 -0.581483 -0.189976
32 1 10.4438 10.4711 10.5458 3.34604 2.33946 -4.73577
63 1 2.72542 6.91481 11.2781 -4.85111 7.58812 4.03309
52 1 2.77086 7.16718 5.51087 -4.15412 3.20668 -1.13784
47 1 -0.0166346 7.94535 10.4299 -5.09772 5.72306 5.72517
30 1 5.57833 7.88122 8.11069 3.8678 6.76863 -9.50926
6 1 5.33507 9.87821 11.2464 6.86879 1.19659 1.52433
16 1 9.10261 11.1166 8.68167 -10.1785 -1.31242 1.24948
79 1 10.8354 8.28312 6.36126 0.197918 0.115277 0.905729
26 1 11.0313 10.6959 7.07349 0.130791 3.74559 1.16381
21 1 9.25562 6.04508 7.32854 1.17642 14.9671 -3.81828
92 1 8.22784 9.72203 10.9086 -4.7323 -2.31563 1.7801
87 1 2.70203 6.10186 8.16785 -0.0497018 6.48983 -0.207844
45 1 3.17173 10.5915 10.5725 -1.03397 3.41758 -3.18077
ITEM: TIMESTEP
40000
ITEM: NUMBER OF ATOMS
108
ITEM: BOX BOUNDS pp pp pp
-2.7608946691626546e-01 1.1106089466916702e+01
-2.7608946691626546e-01 1.1106089466916702e+01
-2.7608946691626546e-01 1.1106089466916702e+01
ITEM: ATOMS id type x y z vx vy vz
51 1 2.47204 0.98393 3.0446 -5.40887 -6.24327 -5.67282
68 1 5.45611 2.49678 1.44796 -5.09292 -4.32584 -6.16235
35 1 3.5427 1.52091 0.109112 5.31806 9.43727 -3.18746
32 1 7.53378 1.25441 4.19351 -7.12321 0.420287 -5.71595
97 1 4.69651 4.53614 3.06673 0.76763 -0.426291 0.709321
27 1 3.12602 3.07255 3.22721 10.7632 0.675619 -2.65184
39 1 0.634995 1.48077 2.44439 4.84752 -10.0315 -3.79635
53 1 1.25038 2.98844 4.60622 -0.359153 5.13843 0.858793
75 1 4.49632 4.63968 0.616578 -0.934635 4.86995 -3.39809
57 1 10.3922 5.33656 5.19626 -2.45197 -5.10161 9.60171
47 1 10.3705 2.05729 0.707652 -3.0439 -2.04633 3.69822
29 1 10.2424 1.83236 4.5573 -0.872737 -5.52062 3.03884
108 1 9.2499 3.51322 2.69415 5.49003 3.63707 6.25716
8 1 0.828372 0.326178 4.60619 -5.56396 8.02092 -2.94638
4 1 2.24074 5.27171 4.24971 0.769904 4.31368 8.27653
102 1 0.708839 4.16111 2.54462 1.39308 3.87957 4.74443
30 1 8.63787 4.67603 4.43334 -2.50035 4.82174 -4.17347
80 1 5.77911 2.21788 3.6814 -1.36984 -5.90941 -10.8808
13 1 7.00882 4.6065 2.41173 1.85101 -3.93456 10.5931
95 1 9.56412 0.666119 2.56334 2.18944 -6.16342 -0.320886
41 1 8.11836 1.91718 1.98621 -0.355621 -1.17714 1.07252
81 1 10.1547 4.40715 0.808206 3.49066 4.0086 -2.92076
63 1 2.11824 3.76955 0.665293 3.73929 1.75118 3.56179
100 1 6.1886 4.97844 4.88572 4.28501 -2.49608 2.07232
104 1 1.08029 1.86944 -0.277279 -1.35841 -3.29092 -1.41864
96 1 3.27624 1.49374 5.20722 -3.11796 -6.57232 -6.99676
88 1 5.31273 0.487562 5.26689 1.98979 -5.94536 -7.51887
48 1 4.36776 3.44149 5.07291 -0.994848 4.89526 -7.9496
25 1 6.05455 1.3207 -0.262213 -0.0447344 -4.09511 -1.41013
74 1 3.75632 2.84486 7.68974 -6.16302 -3.84047 -1.24895
92 1 10.2112 0.763797 6.80972 -4.49575 -1.59063 1.59353
6 1 -0.185519 2.33305 8.82827 -6.42178 -4.51308 -0.0231144
73 1 8.65786 1.67397 8.47727 8.14564 -4.52683 -1.53484
12 1 10.8553 5.19026 8.12855 -3.59282 -3.50442 3.18674
99 1 2.20597 4.24011 6.30885 -2.87637 6.50623 -2.61758
3 1 4.32841 0.39475 9.83214 -2.27692 1.61854 7.056
24 1 6.30921 5.2527 7.98509 2.75321 -2.33672 4.61772
54 1 11.0174 0.623321 10.5874 5.059 9.69171 0.456016
45 1 0.0368989 4.41225 10.4751 -1.78284 -6.18434 4.75642
26 1 9.3718 4.37484 9.6396 -1.93664 3.53754 7.08764
87 1 2.59817 3.31467 9.80323 -0.991511 0.644519 3.16731
79 1 10.8627 3.19947 6.8071 -6.81178 3.9376 7.96943
1 1 8.93203 4.2252 7.19499 -5.91002 -2.02219 -5.07402
20 1 -0.082205 -0.270461 8.53757 8.82654 -8.98394 6.99885
43 1 5.00887 3.18093 10.0885 1.9937 -0.803678 -1.86091
82 1 7.06017 3.72657 9.1189 7.40032 -5.41249 4.5978
36 1 6.28821 1.48324 8.30901 6.19678 4.64643 -2.11642
49 1 8.32345 0.981397 10.6025 2.09798 3.63219 2.12133
106 1 1.4655 1.91609 7.03736 4.84692 -2.69432 6.96546
31 1 8.15823 1.73498 6.36137 -4.50019 -1.99199 0.417326
86 1 6.19212 3.06897 6.54722 3.36896 -2.72065 5.25978
22 1 7.48382 3.12354 11.054 14.5026 -6.7323 2.1556
2 1 5.487 8.27417 3.50506 9.55224 -2.04758 -1.95508
62 1 5.98839 6.44168 1.59642 0.250726 4.63396 -3.86913
71 1 0.820638 6.67109 3.25487 0.963677 -1.66428 -3.33348
28 1 3.01886 10.271 3.85328 -6.7297 8.05197 -10.5393
64 1 7.51207 6.67274 3.41698 2.61077 -0.0984289 3.44549
69 1 7.57712 9.03071 5.0375 7.12803 -2.6922 1.28502
93 1 6.47779 8.4339 0.0141387 1.44395 0.643077 -5.48331
52 1 0.28959 6.37907 0.789401 -2.45946 -10.2864 -8.77353
17 1 2.59336 5.43521 2.07425 9.39663 2.81498 6.58662
7 1 9.87181 8.38041 2.89269 2.77894 4.59554 2.53738
76 1 8.68561 10.1187 0.236603 -4.4535 3.01667 3.7058
105 1 0.171695 10.9605 2.90135 -6.90442 -6.34141 6.85235
21 1 8.14038 6.94108 0.795129 -11.9266 -0.784673 -5.63569
40 1 3.59629 9.37176 1.30291 -5.58647 -3.74575 -1.79824
11 1 3.19756 7.47782 3.83498 -2.0916 0.441874 6.01683
60 1 7.47905 9.13308 2.29135 6.75902 -5.99599 6.08012
23 1 10.2063 8.27267 0.855342 7.3306 5.42934 1.57912
14 1 9.70221 5.87208 2.6466 0.422256 0.698642 -7.69806
33 1 2.23197 7.66974 1.03887 0.842628 5.29748 1.86089
78 1 0.862862 8.98473 4.53427 -4.406 7.56985 -1.40537
89 1 1.78908 11.1372 1.49254 -1.05697 11.7324 4.44362
44 1 5.3981 10.7482 0.959282 -5.73415 -3.93706 5.41052
16 1 10.8625 10.3789 1.06776 1.41335 3.09113 1.39337
77 1 9.89778 10.0602 5.01789 3.87846 2.90022 -14.6597
67 1 4.3041 7.31614 0.202645 0.675597 6.49253 -3.95989
70 1 6.02038 10.4627 3.17289 -5.24072 5.80502 2.44249
101 1 10.2421 7.66175 5.33393 -7.8992 -4.511 -3.95209
83 1 4.99039 8.62196 8.1343 0.563815 12.2108 2.05667
15 1 0.467857 8.33712 10.3835 -3.30342 -2.49303 -0.515806
58 1 0.775114 7.48952 8.1442 -5.44882 -1.31312 -4.18609
10 1 4.62006 9.46145 10.2526 -8.05873 -3.1179 1.35754
65 1 2.71036 7.79652 9.90015 6.70542 -3.05426 7.41271
90 1 1.64821 9.42967 8.75628 4.38655 -4.03243 -3.57448
72 1 5.87014 7.54752 5.75724 -3.66549 1.52309 -4.7793
91 1 9.14317 10.8278 8.4953 -2.60579 -0.316674 -0.174841
94 1 4.1736 6.65714 8.99463 -5.6467 11.4758 -4.91336
50 1 4.12454 5.67078 6.06415 -10.7564 -11.0827 -5.74674
61 1 2.41468 5.5701 11.0438 0.161514 1.22334 -6.80734
98 1 4.85836 9.41569 5.59825 -2.23266 3.09795 -1.23352
18 1 9.43649 9.09782 9.46999 -0.375295 9.85808 -2.27632
46 1 3.69869 10.9486 7.69946 6.63499 -0.449611 -3.36843
85 1 9.6895 7.5303 7.88635 -7.02835 -9.86057 -7.64591
107 1 1.68323 10.4271 10.5638 7.17213 -5.73896 3.57373
9 1 8.19504 9.14616 7.06794 0.0439391 7.12477 1.39581
55 1 9.54908 6.23512 10.3637 3.7102 -3.38077 3.40981
59 1 6.36745 10.6203 7.03024 -3.09725 0.673988 -3.38085
38 1 6.97935 10.5266 9.78947 1.29791 0.0856218 1.75384
5 1 2.05857 5.52672 8.82475 2.26461 -0.140513 -0.384007
84 1 6.67783 7.71769 8.8884 7.03517 1.35898 -9.41394
42 1 10.7422 9.35905 6.97117 3.99305 -3.44155 8.30898
103 1 8.41512 5.90811 8.47865 1.49702 2.99721 -0.707269
37 1 6.93867 5.79285 10.7228 -4.61224 4.98711 6.89157
34 1 1.65252 10.2625 6.51742 -4.9353 -0.21048 6.59337
56 1 2.86532 7.03034 7.01521 -1.11834 -5.81007 7.04171
19 1 1.12148 6.4743 5.8382 -4.71696 8.49761 1.01366
66 1 8.15164 6.48576 6.07061 7.44375 -0.728023 -3.57265
ITEM: TIMESTEP
50000
ITEM: NUMBER OF ATOMS
108
ITEM: BOX BOUNDS pp pp pp
-2.7320717643582793e-01 1.1103207176436298e+01